       N       E                     dE             d eps       ncg     rms          rms(c)
RMM:   1     0.137899059530E+05    0.13790E+05   -0.32100E+05  2496   0.104E+03
RMM:   2     0.476453893875E+04   -0.90254E+04   -0.10171E+05  2496   0.280E+02
RMM:   3     0.188108243189E+04   -0.28835E+04   -0.36960E+04  2496   0.174E+02
RMM:   4     0.505296916228E+03   -0.13758E+04   -0.13293E+04  2496   0.128E+02
RMM:   5    -0.647661223254E+02   -0.57006E+03   -0.52199E+03  2496   0.787E+01
RMM:   6    -0.340029525730E+03   -0.27526E+03   -0.24338E+03  2496   0.549E+01
RMM:   7    -0.480499938342E+03   -0.14047E+03   -0.12834E+03  2496   0.370E+01
RMM:   8    -0.562517457317E+03   -0.82018E+02   -0.73622E+02  2496   0.278E+01
RMM:   9    -0.677452511547E+03   -0.11494E+03   -0.11161E+03  6811   0.199E+01
RMM:  10    -0.701205864103E+03   -0.23753E+02   -0.27701E+02  7536   0.706E+00
RMM:  11    -0.713263524072E+03   -0.12058E+02   -0.10042E+02  7780   0.293E+00
RMM:  12    -0.717852653133E+03   -0.45891E+01   -0.40287E+01  8038   0.146E+00    0.937E+01
RMM:  13    -0.489484838407E+03    0.22837E+03   -0.34048E+03  7080   0.401E+01    0.572E+01
RMM:  14    -0.465177925315E+03    0.24307E+02   -0.12980E+03  7050   0.229E+01    0.475E+01
RMM:  15    -0.487958487468E+03   -0.22781E+02   -0.61311E+02  7000   0.144E+01    0.417E+01
RMM:  16    -0.458208245917E+03    0.29750E+02   -0.39363E+02  7281   0.985E+00    0.229E+01
RMM:  17    -0.434759297814E+03    0.23449E+02   -0.15402E+02  7074   0.604E+00    0.208E+01
RMM:  18    -0.407563497837E+03    0.27196E+02   -0.54845E+01  6611   0.398E+00    0.193E+01
RMM:  19    -0.403449934837E+03    0.41136E+01   -0.70748E+01  5821   0.510E+00    0.214E+01
RMM:  20    -0.406155101405E+03   -0.27052E+01   -0.30729E+01  5785   0.377E+00    0.204E+01
RMM:  21    -0.386390746629E+03    0.19764E+02   -0.98323E+00  5454   0.232E+00    0.108E+01
RMM:  22    -0.384156019501E+03    0.22347E+01   -0.64866E+00  5817   0.162E+00    0.777E+00
RMM:  23    -0.382260271466E+03    0.18957E+01   -0.26968E+00  6148   0.106E+00    0.514E+00
RMM:  24    -0.382334826066E+03   -0.74555E-01   -0.19256E+00  6001   0.864E-01    0.514E+00
RMM:  25    -0.382222476844E+03    0.11235E+00   -0.15166E+00  5699   0.728E-01    0.395E+00
RMM:  26    -0.382305180319E+03   -0.82703E-01   -0.93370E-01  5848   0.566E-01    0.358E+00
RMM:  27    -0.381997146916E+03    0.30803E+00   -0.36506E-01  5669   0.414E-01    0.308E+00
RMM:  28    -0.382106245609E+03   -0.10910E+00   -0.22926E-01  5887   0.310E-01    0.369E+00
RMM:  29    -0.381899131724E+03    0.20711E+00   -0.13222E-01  5784   0.248E-01    0.111E+00
RMM:  30    -0.381907538091E+03   -0.84064E-02   -0.55168E-02  5573   0.178E-01    0.978E-01
RMM:  31    -0.381908180904E+03   -0.64281E-03   -0.28224E-02  5703   0.100E-01    0.681E-01
RMM:  32    -0.381925713765E+03   -0.17533E-01   -0.24186E-02  5693   0.968E-02    0.116E+00
RMM:  33    -0.381915314536E+03    0.10399E-01   -0.15474E-02  5991   0.690E-02    0.593E-01
RMM:  34    -0.381917706251E+03   -0.23917E-02   -0.16181E-02  5758   0.786E-02    0.288E-01
RMM:  35    -0.381923750520E+03   -0.60443E-02   -0.86118E-03  5460   0.548E-02    0.463E-01
RMM:  36    -0.381923242762E+03    0.50776E-03   -0.36588E-03  4912   0.324E-02    0.329E-01
RMM:  37    -0.381923753427E+03   -0.51066E-03   -0.25034E-03  4953   0.291E-02    0.137E-01
RMM:  38    -0.381926779607E+03   -0.30262E-02   -0.24027E-03  4936   0.307E-02    0.159E-01
RMM:  39    -0.381928141312E+03   -0.13617E-02   -0.10983E-03  3972   0.208E-02    0.118E-01
RMM:  40    -0.381928890660E+03   -0.74935E-03   -0.52822E-04  3348   0.148E-02    0.456E-02
RMM:  41    -0.381930288705E+03   -0.13980E-02   -0.63322E-04  3434   0.143E-02    0.680E-02
RMM:  42    -0.381931166803E+03   -0.87810E-03   -0.40388E-04  3202   0.107E-02    0.585E-02
RMM:  43    -0.381931773668E+03   -0.60686E-03   -0.31048E-04  3150   0.921E-03    0.304E-02
RMM:  44    -0.381932144462E+03   -0.37079E-03   -0.16641E-04  2950   0.732E-03    0.351E-02
RMM:  45    -0.381932393726E+03   -0.24926E-03   -0.96443E-05  2680   0.570E-03    0.373E-02
RMM:  46    -0.381932516891E+03   -0.12316E-03   -0.52086E-05  2316   0.465E-03    0.194E-02
RMM:  47    -0.381932614393E+03   -0.97503E-04   -0.48546E-05  1887   0.409E-03
    1 T=  2685. E= -.33716294E+03 F= -.38193261E+03 E0= -.38185206E+03  EK= 0.44766E+02 SP= 0.00E+00 SK= 0.40E-02
       N       E                     dE             d eps       ncg     rms          rms(c)
RMM:   1    -0.566779862007E+03   -0.18485E+03   -0.36572E+02  6017   0.167E+01    0.194E+01
RMM:   2    -0.603576265081E+03   -0.36796E+02   -0.79286E+01  6370   0.584E+00    0.252E+01
RMM:   3    -0.576159556075E+03    0.27417E+02   -0.28126E+01  5453   0.355E+00    0.258E+01
RMM:   4    -0.556546225159E+03    0.19613E+02   -0.12066E+01  5266   0.241E+00    0.108E+01
RMM:   5    -0.556862632096E+03   -0.31641E+00   -0.93451E+00  5538   0.225E+00    0.109E+01
RMM:   6    -0.555373935651E+03    0.14887E+01   -0.46088E+00  5371   0.176E+00    0.582E+00
RMM:   7    -0.554830212465E+03    0.54372E+00   -0.16394E+00  5381   0.990E-01    0.345E+00
RMM:   8    -0.554764264572E+03    0.65948E-01   -0.64375E-01  5383   0.632E-01    0.298E+00
RMM:   9    -0.554638887034E+03    0.12538E+00   -0.23127E-01  5322   0.379E-01    0.195E+00
RMM:  10    -0.554597323281E+03    0.41564E-01   -0.14853E-01  5574   0.275E-01    0.133E+00
RMM:  11    -0.554581398196E+03    0.15925E-01   -0.54662E-02  5353   0.186E-01    0.971E-01
RMM:  12    -0.554569905386E+03    0.11493E-01   -0.23210E-02  5499   0.119E-01    0.519E-01
RMM:  13    -0.554571442476E+03   -0.15371E-02   -0.16106E-02  5714   0.935E-02    0.418E-01
RMM:  14    -0.554569006933E+03    0.24355E-02   -0.56200E-03  5239   0.589E-02    0.212E-01
RMM:  15    -0.554568855422E+03    0.15151E-03   -0.26960E-03  5389   0.366E-02    0.163E-01
RMM:  16    -0.554568793729E+03    0.61693E-04   -0.76554E-04  4012   0.208E-02
    2 T= 13362. E= -.33153549E+03 F= -.55456879E+03 E0= -.55448846E+03  EK= 0.22280E+03 SP= 0.41E-02 SK= 0.23E+00
       N       E                     dE             d eps       ncg     rms          rms(c)
RMM:   1    -0.736375608357E+03   -0.18181E+03   -0.44840E+02  6647   0.203E+01    0.193E+01
RMM:   2    -0.733492328707E+03    0.28833E+01   -0.29930E+01  6018   0.452E+00    0.164E+01
RMM:   3    -0.737817577519E+03   -0.43252E+01   -0.11370E+01  5563   0.238E+00    0.214E+01
RMM:   4    -0.733166993509E+03    0.46506E+01   -0.11360E+01  5361   0.245E+00    0.145E+01
RMM:   5    -0.729144506223E+03    0.40225E+01   -0.74619E+00  5307   0.207E+00    0.908E+00
RMM:   6    -0.727187356653E+03    0.19571E+01   -0.30433E+00  5284   0.143E+00    0.386E+00
RMM:   7    -0.727219798020E+03   -0.32441E-01   -0.13780E+00  5283   0.890E-01    0.444E+00
RMM:   8    -0.726916571909E+03    0.30323E+00   -0.48928E-01  5197   0.565E-01    0.205E+00
RMM:   9    -0.726899532088E+03    0.17040E-01   -0.24851E-01  5601   0.367E-01    0.164E+00
RMM:  10    -0.726900997400E+03   -0.14653E-02   -0.12686E-01  5494   0.269E-01    0.138E+00
RMM:  11    -0.726876330716E+03    0.24667E-01   -0.67727E-02  5519   0.189E-01    0.944E-01
RMM:  12    -0.726862846327E+03    0.13484E-01   -0.25640E-02  5561   0.116E-01    0.452E-01
RMM:  13    -0.726860814564E+03    0.20318E-02   -0.10642E-02  5572   0.747E-02    0.295E-01
RMM:  14    -0.726860469109E+03    0.34546E-03   -0.58174E-03  5468   0.564E-02    0.207E-01
RMM:  15    -0.726859800222E+03    0.66889E-03   -0.19266E-03  4962   0.337E-02    0.111E-01
RMM:  16    -0.726859945427E+03   -0.14521E-03   -0.89349E-04  4322   0.220E-02    0.978E-02
RMM:  17    -0.726859965637E+03   -0.20210E-04   -0.34557E-04  3396   0.156E-02
    3 T= 22793. E= -.34473489E+03 F= -.72685997E+03 E0= -.72677792E+03  EK= 0.38007E+03 SP= 0.30E-01 SK= 0.20E+01
       N       E                     dE             d eps       ncg     rms          rms(c)
RMM:   1    -0.844617989633E+03   -0.11776E+03   -0.42542E+02  6343   0.208E+01    0.140E+01
RMM:   2    -0.836856412427E+03    0.77616E+01   -0.19783E+01  6329   0.345E+00    0.103E+01
RMM:   3    -0.838411945491E+03   -0.15555E+01   -0.78151E+00  5584   0.207E+00    0.107E+01
RMM:   4    -0.839619821121E+03   -0.12079E+01   -0.56428E+00  5437   0.169E+00    0.115E+01
RMM:   5    -0.837442720468E+03    0.21771E+01   -0.31007E+00  5423   0.120E+00    0.732E+00
RMM:   6    -0.836293347598E+03    0.11494E+01   -0.21241E+00  5420   0.102E+00    0.371E+00
RMM:   7    -0.836170089019E+03    0.12326E+00   -0.10819E+00  5391   0.720E-01    0.330E+00
RMM:   8    -0.835962146528E+03    0.20794E+00   -0.28202E-01  5233   0.414E-01    0.135E+00
RMM:   9    -0.835964335469E+03   -0.21889E-02   -0.13258E-01  5623   0.248E-01    0.127E+00
RMM:  10    -0.835939418366E+03    0.24917E-01   -0.63917E-02  5671   0.168E-01    0.731E-01
RMM:  11    -0.835933668242E+03    0.57501E-02   -0.35521E-02  5627   0.120E-01    0.453E-01
RMM:  12    -0.835932291416E+03    0.13768E-02   -0.16232E-02  5611   0.758E-02    0.323E-01
RMM:  13    -0.835932364209E+03   -0.72793E-04   -0.10670E-02  5472   0.577E-02    0.237E-01
RMM:  14    -0.835931838830E+03    0.52538E-03   -0.57712E-03  5290   0.390E-02    0.129E-01
RMM:  15    -0.835931964313E+03   -0.12548E-03   -0.36335E-03  4579   0.272E-02    0.871E-02
RMM:  16    -0.835932165670E+03   -0.20136E-03   -0.22143E-03  3875   0.211E-02    0.654E-02
RMM:  17    -0.835932296790E+03   -0.13112E-03   -0.13777E-03  3450   0.165E-02    0.470E-02
RMM:  18    -0.835932399335E+03   -0.10254E-03   -0.98835E-04  3280   0.122E-02    0.328E-02
RMM:  19    -0.835932474114E+03   -0.74779E-04   -0.58834E-04  3099   0.911E-03
    4 T= 29617. E= -.33411701E+03 F= -.83593247E+03 E0= -.83585454E+03  EK= 0.49386E+03 SP= 0.95E-01 SK= 0.79E+01
       N       E                     dE             d eps       ncg     rms          rms(c)
RMM:   1    -0.954838935436E+03   -0.11891E+03   -0.55813E+02  6848   0.251E+01    0.222E+01
RMM:   2    -0.940168631574E+03    0.14670E+02   -0.51546E+01  6034   0.465E+00    0.191E+01
RMM:   3    -0.947414191711E+03   -0.72456E+01   -0.21863E+01  5768   0.282E+00    0.231E+01
RMM:   4    -0.942016941816E+03    0.53972E+01   -0.19653E+01  5488   0.297E+00    0.169E+01
RMM:   5    -0.935189381618E+03    0.68276E+01   -0.11662E+01  5315   0.266E+00    0.796E+00
RMM:   6    -0.934763895009E+03    0.42549E+00   -0.67620E+00  5385   0.190E+00    0.634E+00
RMM:   7    -0.933885821366E+03    0.87807E+00   -0.17344E+00  5190   0.103E+00    0.345E+00
RMM:   8    -0.933843939194E+03    0.41882E-01   -0.82587E-01  5513   0.613E-01    0.310E+00
RMM:   9    -0.933758925148E+03    0.85014E-01   -0.42230E-01  5479   0.457E-01    0.235E+00
RMM:  10    -0.933654300291E+03    0.10462E+00   -0.24766E-01  5468   0.359E-01    0.112E+00
RMM:  11    -0.933641013122E+03    0.13287E-01   -0.10124E-01  5598   0.229E-01    0.713E-01
RMM:  12    -0.933636983584E+03    0.40295E-02   -0.35491E-02  5598   0.136E-01    0.531E-01
RMM:  13    -0.933632746961E+03    0.42366E-02   -0.15864E-02  5516   0.857E-02    0.305E-01
RMM:  14    -0.933631761580E+03    0.98538E-03   -0.67573E-03  5375   0.594E-02    0.175E-01
RMM:  15    -0.933632102490E+03   -0.34091E-03   -0.32226E-03  5288   0.403E-02    0.145E-01
RMM:  16    -0.933632244562E+03   -0.14207E-03   -0.15525E-03  4723   0.282E-02    0.879E-02
RMM:  17    -0.933632570377E+03   -0.32581E-03   -0.57200E-04  3541   0.176E-02    0.592E-02
RMM:  18    -0.933632893448E+03   -0.32307E-03   -0.34723E-04  3334   0.139E-02    0.533E-02
RMM:  19    -0.933633346865E+03   -0.45342E-03   -0.28534E-04  3260   0.128E-02    0.447E-02
RMM:  20    -0.933633718522E+03   -0.37166E-03   -0.19933E-04  3139   0.112E-02    0.396E-02
RMM:  21    -0.933634051844E+03   -0.33332E-03   -0.16123E-04  3065   0.957E-03    0.279E-02
RMM:  22    -0.933634276155E+03   -0.22431E-03   -0.96425E-05  2879   0.747E-03    0.188E-02
RMM:  23    -0.933634441719E+03   -0.16556E-03   -0.62328E-05  2684   0.593E-03    0.163E-02
RMM:  24    -0.933634590285E+03   -0.14857E-03   -0.60956E-05  2664   0.518E-03    0.121E-02
RMM:  25    -0.933634678338E+03   -0.88053E-04   -0.38468E-05  2046   0.418E-03
    5 T= 34442. E= -.33889355E+03 F= -.93363468E+03 E0= -.93355720E+03  EK= 0.57430E+03 SP= 0.21E+00 SK= 0.20E+02
       N       E                     dE             d eps       ncg     rms          rms(c)
RMM:   1    -0.100541944295E+04   -0.71785E+02   -0.38684E+02  6192   0.218E+01    0.137E+01
RMM:   2    -0.101305562196E+04   -0.76362E+01   -0.11241E+02  7628   0.774E+00    0.142E+01
RMM:   3    -0.995745201071E+03    0.17310E+02   -0.34244E+01  6042   0.489E+00    0.922E+00
RMM:   4    -0.100025613306E+04   -0.45109E+01   -0.91885E+00  5737   0.194E+00    0.134E+01
RMM:   5    -0.996329214758E+03    0.39269E+01   -0.32821E+00  5475   0.125E+00    0.735E+00
RMM:   6    -0.996186008504E+03    0.14321E+00   -0.20894E+00  5348   0.109E+00    0.590E+00
RMM:   7    -0.995745292493E+03    0.44072E+00   -0.11304E+00  5303   0.793E-01    0.475E+00
RMM:   8    -0.995503309952E+03    0.24198E+00   -0.38712E-01  5243   0.487E-01    0.319E+00
RMM:   9    -0.995443876092E+03    0.59434E-01   -0.15283E-01  5524   0.302E-01    0.228E+00
RMM:  10    -0.995406855176E+03    0.37021E-01   -0.45141E-02  5291   0.166E-01    0.173E+00
RMM:  11    -0.995405607287E+03    0.12479E-02   -0.41660E-02  5479   0.150E-01    0.159E+00
RMM:  12    -0.995389993547E+03    0.15614E-01   -0.26238E-02  5293   0.123E-01    0.111E+00
RMM:  13    -0.995383674833E+03    0.63187E-02   -0.14734E-02  5690   0.843E-02    0.742E-01
RMM:  14    -0.995382818407E+03    0.85643E-03   -0.76772E-03  5309   0.644E-02    0.536E-01
RMM:  15    -0.995383715188E+03   -0.89678E-03   -0.51343E-03  5388   0.494E-02    0.430E-01
RMM:  16    -0.995384434724E+03   -0.71954E-03   -0.31556E-03  5104   0.427E-02    0.260E-01
RMM:  17    -0.995385228006E+03   -0.79328E-03   -0.18380E-03  4984   0.310E-02    0.165E-01
RMM:  18    -0.995386054867E+03   -0.82686E-03   -0.10554E-03  4310   0.226E-02    0.978E-02
RMM:  19    -0.995386742376E+03   -0.68751E-03   -0.52726E-04  3525   0.166E-02    0.446E-02
RMM:  20    -0.995387461263E+03   -0.71889E-03   -0.34077E-04  3286   0.132E-02    0.457E-02
RMM:  21    -0.995387935615E+03   -0.47435E-03   -0.17411E-04  3043   0.988E-03    0.320E-02
RMM:  22    -0.995388413019E+03   -0.47740E-03   -0.13336E-04  2947   0.805E-03    0.300E-02
RMM:  23    -0.995388776875E+03   -0.36386E-03   -0.94681E-05  2729   0.626E-03    0.243E-02
RMM:  24    -0.995389097701E+03   -0.32083E-03   -0.83230E-05  2517   0.534E-03    0.186E-02
RMM:  25    -0.995389512996E+03   -0.41530E-03   -0.14871E-04  2740   0.580E-03    0.149E-02
RMM:  26    -0.995389849109E+03   -0.33611E-03   -0.16287E-04  2649   0.565E-03    0.111E-02
RMM:  27    -0.995389972626E+03   -0.12352E-03   -0.74164E-05  1879   0.427E-03    0.754E-03
RMM:  28    -0.995390023037E+03   -0.50411E-04   -0.35386E-05  1506   0.364E-03
    6 T= 36982. E= -.33754740E+03 F= -.99539002E+03 E0= -.99531038E+03  EK= 0.61666E+03 SP= 0.38E+00 SK= 0.41E+02
       N       E                     dE             d eps       ncg     rms          rms(c)
RMM:   1    -0.104126945718E+04   -0.45879E+02   -0.39377E+02  5889   0.238E+01    0.164E+01
RMM:   2    -0.106264533534E+04   -0.21376E+02   -0.10701E+02  6325   0.635E+00    0.243E+01
RMM:   3    -0.105010687392E+04    0.12538E+02   -0.26687E+01  5526   0.339E+00    0.230E+01
RMM:   4    -0.103658623881E+04    0.13521E+02   -0.10377E+01  5290   0.228E+00    0.116E+01
RMM:   5    -0.103485718645E+04    0.17291E+01   -0.45509E+00  5410   0.164E+00    0.845E+00
RMM:   6    -0.103378877443E+04    0.10684E+01   -0.31133E+00  5336   0.134E+00    0.573E+00
RMM:   7    -0.103474549696E+04   -0.95672E+00   -0.39295E+00  5512   0.146E+00    0.782E+00
RMM:   8    -0.103400356949E+04    0.74193E+00   -0.12100E+00  5247   0.923E-01    0.430E+00
RMM:   9    -0.103384295652E+04    0.16061E+00   -0.61014E-01  5528   0.555E-01    0.298E+00
RMM:  10    -0.103371829751E+04    0.12466E+00   -0.31996E-01  5456   0.438E-01    0.167E+00
RMM:  11    -0.103368101379E+04    0.37284E-01   -0.10895E-01  5445   0.256E-01    0.116E+00
RMM:  12    -0.103367491628E+04    0.60975E-02   -0.56161E-02  5560   0.178E-01    0.101E+00
RMM:  13    -0.103365796993E+04    0.16946E-01   -0.31217E-02  5395   0.135E-01    0.468E-01
RMM:  14    -0.103365694455E+04    0.10254E-02   -0.16377E-02  5647   0.950E-02    0.352E-01
RMM:  15    -0.103365731314E+04   -0.36859E-03   -0.62533E-03  5535   0.620E-02    0.274E-01
RMM:  16    -0.103365752901E+04   -0.21588E-03   -0.26761E-03  5133   0.442E-02    0.129E-01
RMM:  17    -0.103365847109E+04   -0.94208E-03   -0.10970E-03  4767   0.282E-02    0.104E-01
RMM:  18    -0.103365940883E+04   -0.93774E-03   -0.67316E-04  4069   0.220E-02    0.826E-02
RMM:  19    -0.103366039137E+04   -0.98254E-03   -0.42260E-04  3509   0.180E-02    0.587E-02
RMM:  20    -0.103366110353E+04   -0.71216E-03   -0.27888E-04  3241   0.141E-02    0.505E-02
RMM:  21    -0.103366227143E+04   -0.11679E-02   -0.40240E-04  3440   0.157E-02    0.356E-02
RMM:  22    -0.103366322575E+04   -0.95433E-03   -0.38225E-04  3357   0.137E-02    0.341E-02
RMM:  23    -0.103366388942E+04   -0.66367E-03   -0.26141E-04  3175   0.109E-02    0.243E-02
RMM:  24    -0.103366440351E+04   -0.51409E-03   -0.20322E-04  3058   0.913E-03    0.154E-02
RMM:  25    -0.103366464757E+04   -0.24406E-03   -0.96165E-05  2607   0.632E-03    0.128E-02
RMM:  26    -0.103366482806E+04   -0.18049E-03   -0.68610E-05  2368   0.522E-03    0.994E-03
RMM:  27    -0.103366496493E+04   -0.13687E-03   -0.49325E-05  1984   0.442E-03    0.654E-03
RMM:  28    -0.103366509379E+04   -0.12885E-03   -0.53664E-05  1912   0.413E-03    0.485E-03
RMM:  29    -0.103366517670E+04   -0.82913E-04   -0.37174E-05  1595   0.367E-03
    7 T= 37553. E= -.33697810E+03 F= -.10336652E+04 E0= -.10335892E+04  EK= 0.62619E+03 SP= 0.62E+00 SK= 0.70E+02
       N       E                     dE             d eps       ncg     rms          rms(c)
RMM:   1    -0.106830353641E+04   -0.34638E+02   -0.39420E+02  5471   0.244E+01    0.161E+01
RMM:   2    -0.108009700579E+04   -0.11793E+02   -0.74117E+01  5882   0.607E+00    0.221E+01
RMM:   3    -0.107480941984E+04    0.52876E+01   -0.22579E+01  5425   0.329E+00    0.232E+01
RMM:   4    -0.106080467019E+04    0.14005E+02   -0.10241E+01  5242   0.232E+00    0.106E+01
RMM:   5    -0.105912818678E+04    0.16765E+01   -0.44978E+00  5367   0.165E+00    0.710E+00
RMM:   6    -0.105847104573E+04    0.65714E+00   -0.21607E+00  5340   0.113E+00    0.474E+00
RMM:   7    -0.105871148008E+04   -0.24043E+00   -0.21553E+00  5451   0.110E+00    0.436E+00
RMM:   8    -0.105851880033E+04    0.19268E+00   -0.98297E-01  5280   0.805E-01    0.238E+00
RMM:   9    -0.105855114915E+04   -0.32349E-01   -0.43060E-01  5500   0.487E-01    0.232E+00
RMM:  10    -0.105846400210E+04    0.87147E-01   -0.13690E-01  5305   0.298E-01    0.121E+00
RMM:  11    -0.105844939579E+04    0.14606E-01   -0.74795E-02  5488   0.203E-01    0.952E-01
RMM:  12    -0.105843819759E+04    0.11198E-01   -0.40842E-02  5533   0.152E-01    0.582E-01
RMM:  13    -0.105843357109E+04    0.46265E-02   -0.17590E-02  5401   0.105E-01    0.292E-01
RMM:  14    -0.105843393490E+04   -0.36381E-03   -0.71806E-03  5539   0.658E-02    0.259E-01
RMM:  15    -0.105843410665E+04   -0.17175E-03   -0.31388E-03  5265   0.437E-02    0.149E-01
RMM:  16    -0.105843485592E+04   -0.74927E-03   -0.13419E-03  4883   0.298E-02    0.111E-01
RMM:  17    -0.105843575172E+04   -0.89580E-03   -0.69500E-04  4237   0.215E-02    0.778E-02
RMM:  18    -0.105843671169E+04   -0.95997E-03   -0.44836E-04  3577   0.181E-02    0.595E-02
RMM:  19    -0.105843755051E+04   -0.83882E-03   -0.29158E-04  3276   0.141E-02    0.592E-02
RMM:  20    -0.105843834216E+04   -0.79165E-03   -0.20446E-04  3104   0.121E-02    0.380E-02
RMM:  21    -0.105843921701E+04   -0.87485E-03   -0.20814E-04  3105   0.113E-02    0.309E-02
RMM:  22    -0.105844014806E+04   -0.93105E-03   -0.21077E-04  3125   0.106E-02    0.216E-02
RMM:  23    -0.105844061525E+04   -0.46720E-03   -0.10606E-04  2850   0.791E-03    0.144E-02
RMM:  24    -0.105844091629E+04   -0.30104E-03   -0.74892E-05  2608   0.599E-03    0.148E-02
RMM:  25    -0.105844108994E+04   -0.17364E-03   -0.43996E-05  2320   0.466E-03    0.836E-03
RMM:  26    -0.105844121272E+04   -0.12278E-03   -0.31121E-05  1620   0.376E-03    0.639E-03
RMM:  27    -0.105844129425E+04   -0.81539E-04   -0.23825E-05  1470   0.348E-03
    8 T= 36882. E= -.33584625E+03 F= -.10584413E+04 E0= -.10583695E+04  EK= 0.61499E+03 SP= 0.91E+00 SK= 0.11E+03
       N       E                     dE             d eps       ncg     rms          rms(c)
RMM:   1    -0.109745489673E+04   -0.39014E+02   -0.44931E+02  5753   0.225E+01    0.121E+01
RMM:   2    -0.107948725281E+04    0.17968E+02   -0.44416E+01  5447   0.396E+00    0.967E+00
RMM:   3    -0.108280558549E+04   -0.33183E+01   -0.64290E+00  5457   0.186E+00    0.143E+01
RMM:   4    -0.107821007187E+04    0.45955E+01   -0.22543E+00  5213   0.113E+00    0.689E+00
RMM:   5    -0.107828472297E+04   -0.74651E-01   -0.21146E+00  5460   0.108E+00    0.730E+00
RMM:   6    -0.107833873287E+04   -0.54010E-01   -0.15709E+00  5385   0.971E-01    0.599E+00
RMM:   7    -0.107796865615E+04    0.37008E+00   -0.89495E-01  5287   0.766E-01    0.280E+00
RMM:   8    -0.107796118147E+04    0.74747E-02   -0.34590E-01  5455   0.440E-01    0.257E+00
RMM:   9    -0.107786116920E+04    0.10001E+00   -0.13458E-01  5356   0.286E-01    0.115E+00
RMM:  10    -0.107784422292E+04    0.16946E-01   -0.58708E-02  5338   0.189E-01    0.672E-01
RMM:  11    -0.107783978421E+04    0.44387E-02   -0.26183E-02  5550   0.119E-01    0.518E-01
RMM:  12    -0.107783809963E+04    0.16846E-02   -0.16435E-02  5378   0.102E-01    0.318E-01
RMM:  13    -0.107783812902E+04   -0.29388E-04   -0.87917E-03  5472   0.720E-02    0.247E-01
RMM:  14    -0.107783741660E+04    0.71242E-03   -0.25332E-03  5062   0.401E-02    0.131E-01
RMM:  15    -0.107783730903E+04    0.10757E-03   -0.68782E-04  4100   0.208E-02    0.749E-02
RMM:  16    -0.107783736639E+04   -0.57362E-04   -0.24119E-04  3171   0.143E-02
    9 T= 35294. E= -.33826255E+03 F= -.10778374E+04 E0= -.10777656E+04  EK= 0.58852E+03 SP= 0.13E+01 SK= 0.15E+03
       N       E                     dE             d eps       ncg     rms          rms(c)
RMM:   1    -0.110054275849E+04   -0.22705E+02   -0.42963E+02  6101   0.231E+01    0.129E+01
RMM:   2    -0.109064993567E+04    0.98928E+01   -0.17311E+01  5392   0.360E+00    0.978E+00
RMM:   3    -0.109143397660E+04   -0.78404E+00   -0.44979E+00  5382   0.164E+00    0.126E+01
RMM:   4    -0.108903052039E+04    0.24035E+01   -0.23401E+00  5311   0.111E+00    0.803E+00
RMM:   5    -0.108961855631E+04   -0.58804E+00   -0.27545E+00  5351   0.125E+00    0.911E+00
RMM:   6    -0.108878646862E+04    0.83209E+00   -0.11327E+00  5132   0.979E-01    0.496E+00
RMM:   7    -0.108868224205E+04    0.10423E+00   -0.57541E-01  5214   0.602E-01    0.283E+00
RMM:   8    -0.108856635242E+04    0.11589E+00   -0.26098E-01  5306   0.423E-01    0.136E+00
RMM:   9    -0.108855517891E+04    0.11174E-01   -0.84633E-02  5345   0.225E-01    0.126E+00
RMM:  10    -0.108855029317E+04    0.48857E-02   -0.34490E-02  5423   0.144E-01    0.956E-01
RMM:  11    -0.108854163832E+04    0.86549E-02   -0.24411E-02  5328   0.123E-01    0.436E-01
RMM:  12    -0.108854114234E+04    0.49597E-03   -0.90792E-03  5314   0.776E-02    0.380E-01
RMM:  13    -0.108854033867E+04    0.80368E-03   -0.32770E-03  5090   0.458E-02    0.299E-01
RMM:  14    -0.108853982702E+04    0.51165E-03   -0.15133E-03  4863   0.307E-02    0.184E-01
RMM:  15    -0.108853960455E+04    0.22246E-03   -0.84113E-04  4373   0.243E-02    0.991E-02
RMM:  16    -0.108853966027E+04   -0.55713E-04   -0.25722E-04  3217   0.151E-02
   10 T= 33268. E= -.33468781E+03 F= -.10885397E+04 E0= -.10884673E+04  EK= 0.55473E+03 SP= 0.17E+01 SK= 0.20E+03
       N       E                     dE             d eps       ncg     rms          rms(c)
RMM:   1    -0.113702718718E+04   -0.48488E+02   -0.49322E+02  6517   0.280E+01    0.159E+01
RMM:   2    -0.112300678357E+04    0.14020E+02   -0.22541E+01  5340   0.429E+00    0.122E+01
RMM:   3    -0.112589410832E+04   -0.28873E+01   -0.65329E+00  5253   0.211E+00    0.166E+01
RMM:   4    -0.112340428600E+04    0.24898E+01   -0.46232E+00  5298   0.160E+00    0.116E+01
RMM:   5    -0.112251882122E+04    0.88546E+00   -0.41373E+00  5274   0.157E+00    0.107E+01
RMM:   6    -0.112128311139E+04    0.12357E+01   -0.16905E+00  5000   0.125E+00    0.300E+00
RMM:   7    -0.112143804947E+04   -0.15494E+00   -0.69229E-01  5282   0.664E-01    0.374E+00
RMM:   8    -0.112120712825E+04    0.23092E+00   -0.25457E-01  5241   0.378E-01    0.195E+00
RMM:   9    -0.112117645919E+04    0.30669E-01   -0.17284E-01  5380   0.298E-01    0.148E+00
RMM:  10    -0.112115358555E+04    0.22874E-01   -0.87019E-02  5274   0.235E-01    0.862E-01
RMM:  11    -0.112114389308E+04    0.96925E-02   -0.37164E-02  5264   0.159E-01    0.467E-01
RMM:  12    -0.112114172539E+04    0.21677E-02   -0.11559E-02  5405   0.881E-02    0.361E-01
RMM:  13    -0.112114086552E+04    0.85986E-03   -0.32986E-03  5349   0.468E-02    0.234E-01
RMM:  14    -0.112114055217E+04    0.31335E-03   -0.14205E-03  4914   0.312E-02    0.150E-01
RMM:  15    -0.112114061521E+04   -0.63035E-04   -0.79835E-04  4524   0.240E-02
   11 T= 31952. E= -.33730586E+03 F= -.11211406E+04 E0= -.11210669E+04  EK= 0.53278E+03 SP= 0.22E+01 SK= 0.25E+03
       N       E                     dE             d eps       ncg     rms          rms(c)
RMM:   1    -0.115080140644E+04   -0.29661E+02   -0.25329E+02  5695   0.206E+01    0.921E+00
RMM:   2    -0.114688515125E+04    0.39163E+01   -0.73405E+00  5410   0.255E+00    0.850E+00
RMM:   3    -0.114796938386E+04   -0.10842E+01   -0.22581E+00  5304   0.124E+00    0.109E+01
RMM:   4    -0.114722579889E+04    0.74358E+00   -0.18945E+00  5232   0.110E+00    0.822E+00
RMM:   5    -0.114712747519E+04    0.98324E-01   -0.12736E+00  5104   0.954E-01    0.762E+00
RMM:   6    -0.114637802576E+04    0.74945E+00   -0.64275E-01  5006   0.738E-01    0.207E+00
RMM:   7    -0.114650812748E+04   -0.13010E+00   -0.36339E-01  5300   0.465E-01    0.309E+00
RMM:   8    -0.114637659593E+04    0.13153E+00   -0.15659E-01  5241   0.294E-01    0.144E+00
RMM:   9    -0.114634929715E+04    0.27299E-01   -0.50405E-02  5237   0.178E-01    0.919E-01
RMM:  10    -0.114634823379E+04    0.10634E-02   -0.28262E-02  5466   0.133E-01    0.810E-01
RMM:  11    -0.114634268479E+04    0.55490E-02   -0.10665E-02  5132   0.908E-02    0.418E-01
RMM:  12    -0.114634184129E+04    0.84350E-03   -0.59096E-03  5506   0.613E-02    0.179E-01
RMM:  13    -0.114634204832E+04   -0.20704E-03   -0.14711E-03  4982   0.311E-02    0.152E-01
RMM:  14    -0.114634194484E+04    0.10349E-03   -0.44250E-04  3634   0.190E-02    0.793E-02
RMM:  15    -0.114634199569E+04   -0.50855E-04   -0.18665E-04  3028   0.135E-02
   12 T= 30171. E= -.33715591E+03 F= -.11463420E+04 E0= -.11462662E+04  EK= 0.50309E+03 SP= 0.27E+01 SK= 0.30E+03
       N       E                     dE             d eps       ncg     rms          rms(c)
RMM:   1    -0.116317958323E+04   -0.16838E+02   -0.19152E+02  4992   0.179E+01    0.551E+00
RMM:   2    -0.115895302181E+04    0.42266E+01   -0.37864E+00  5345   0.178E+00    0.606E+00
RMM:   3    -0.115903402095E+04   -0.80999E-01   -0.10044E+00  5255   0.804E-01    0.598E+00
RMM:   4    -0.115873125567E+04    0.30277E+00   -0.63368E-01  5233   0.601E-01    0.528E+00
RMM:   5    -0.115877247303E+04   -0.41217E-01   -0.41909E-01  5152   0.548E-01    0.613E+00
RMM:   6    -0.115856600389E+04    0.20647E+00   -0.32794E-01  5045   0.547E-01    0.243E+00
RMM:   7    -0.115855047642E+04    0.15527E-01   -0.14925E-01  5065   0.346E-01    0.204E+00
RMM:   8    -0.115852485422E+04    0.25622E-01   -0.50185E-02  5042   0.204E-01    0.112E+00
RMM:   9    -0.115852031390E+04    0.45403E-02   -0.18828E-02  5208   0.121E-01    0.858E-01
RMM:  10    -0.115851536531E+04    0.49486E-02   -0.77600E-03  5163   0.775E-02    0.438E-01
RMM:  11    -0.115851532563E+04    0.39686E-04   -0.60581E-03  5197   0.672E-02    0.274E-01
RMM:  12    -0.115851532260E+04    0.30272E-05   -0.32461E-03  5138   0.475E-02    0.202E-01
RMM:  13    -0.115851492440E+04    0.39820E-03   -0.13612E-03  4825   0.294E-02    0.148E-01
RMM:  14    -0.115851471427E+04    0.21014E-03   -0.52575E-04  3802   0.196E-02    0.832E-02
RMM:  15    -0.115851463344E+04    0.80824E-04   -0.14001E-04  2962   0.123E-02
   13 T= 27588. E= -.33635166E+03 F= -.11585146E+04 E0= -.11584393E+04  EK= 0.46002E+03 SP= 0.33E+01 SK= 0.36E+03
       N       E                     dE             d eps       ncg     rms          rms(c)
RMM:   1    -0.116785333107E+04   -0.93386E+01   -0.14680E+02  4992   0.170E+01    0.595E+00
RMM:   2    -0.116841012864E+04   -0.55680E+00   -0.99479E+00  5368   0.245E+00    0.109E+01
RMM:   3    -0.116761538951E+04    0.79474E+00   -0.24620E+00  5244   0.118E+00    0.117E+01
RMM:   4    -0.116523424756E+04    0.23811E+01   -0.10717E+00  5016   0.868E-01    0.461E+00
RMM:   5    -0.116508839898E+04    0.14585E+00   -0.68116E-01  5297   0.563E-01    0.355E+00
RMM:   6    -0.116505775017E+04    0.30649E-01   -0.40406E-01  5300   0.422E-01    0.351E+00
RMM:   7    -0.116501950751E+04    0.38243E-01   -0.15873E-01  5342   0.315E-01    0.223E+00
RMM:   8    -0.116507143709E+04   -0.51930E-01   -0.19017E-01  5147   0.359E-01    0.192E+00
RMM:   9    -0.116506586256E+04    0.55745E-02   -0.81329E-02  5228   0.242E-01    0.149E+00
RMM:  10    -0.116506326186E+04    0.26007E-02   -0.38930E-02  5211   0.165E-01    0.136E+00
RMM:  11    -0.116504509365E+04    0.18168E-01   -0.16760E-02  5153   0.983E-02    0.799E-01
RMM:  12    -0.116503947399E+04    0.56197E-02   -0.13421E-02  5398   0.728E-02    0.258E-01
RMM:  13    -0.116504022024E+04   -0.74625E-03   -0.48776E-03  5372   0.501E-02    0.277E-01
RMM:  14    -0.116503962904E+04    0.59120E-03   -0.15319E-03  4932   0.313E-02    0.190E-01
RMM:  15    -0.116503964024E+04   -0.11200E-04   -0.77708E-04  4420   0.225E-02
   14 T= 24716. E= -.33597158E+03 F= -.11650396E+04 E0= -.11649649E+04  EK= 0.41213E+03 SP= 0.39E+01 SK= 0.41E+03
       N       E                     dE             d eps       ncg     rms          rms(c)
RMM:   1    -0.117122206832E+04   -0.61824E+01   -0.16535E+02  4992   0.183E+01    0.481E+00
RMM:   2    -0.117127558732E+04   -0.53519E-01   -0.50505E+00  5265   0.200E+00    0.104E+01
RMM:   3    -0.116965965267E+04    0.16159E+01   -0.12712E+00  5079   0.930E-01    0.691E+00
RMM:   4    -0.116903629331E+04    0.62336E+00   -0.64763E-01  5214   0.612E-01    0.351E+00
RMM:   5    -0.116897450592E+04    0.61787E-01   -0.34683E-01  5268   0.415E-01    0.274E+00
RMM:   6    -0.116892831006E+04    0.46196E-01   -0.10128E-01  5180   0.270E-01    0.220E+00
RMM:   7    -0.116892783748E+04    0.47258E-03   -0.58260E-02  5306   0.204E-01    0.154E+00
RMM:   8    -0.116896453323E+04   -0.36696E-01   -0.78836E-02  5335   0.279E-01    0.117E+00
RMM:   9    -0.116895735436E+04    0.71789E-02   -0.45099E-02  5211   0.179E-01    0.783E-01
RMM:  10    -0.116895375889E+04    0.35955E-02   -0.14332E-02  5391   0.956E-02    0.643E-01
RMM:  11    -0.116895376777E+04   -0.88816E-05   -0.65484E-03  5176   0.655E-02    0.695E-01
RMM:  12    -0.116895160921E+04    0.21586E-02   -0.22533E-03  5115   0.422E-02    0.336E-01
RMM:  13    -0.116895166303E+04   -0.53827E-04   -0.19205E-03  5109   0.334E-02    0.224E-01
RMM:  14    -0.116895160558E+04    0.57453E-04   -0.14539E-03  4970   0.288E-02    0.163E-01
RMM:  15    -0.116895140309E+04    0.20249E-03   -0.28104E-04  3266   0.171E-02    0.785E-02
RMM:  16    -0.116895141863E+04   -0.15538E-04   -0.10419E-04  2879   0.104E-02
   15 T= 21841. E= -.33580022E+03 F= -.11689514E+04 E0= -.11688766E+04  EK= 0.36419E+03 SP= 0.46E+01 SK= 0.46E+03
       N       E                     dE             d eps       ncg     rms          rms(c)
RMM:   1    -0.117150798045E+04   -0.25566E+01   -0.14072E+02  4992   0.175E+01    0.409E+00
RMM:   2    -0.117236854913E+04   -0.86057E+00   -0.29700E+00  5168   0.167E+00    0.207E+01
RMM:   3    -0.117052391687E+04    0.18446E+01   -0.12333E+00  5004   0.848E-01    0.530E+00
RMM:   4    -0.117045290623E+04    0.71011E-01   -0.54324E-01  5284   0.553E-01    0.489E+00
RMM:   5    -0.117024177824E+04    0.21113E+00   -0.30593E-01  5347   0.431E-01    0.319E+00
RMM:   6    -0.117015190469E+04    0.89874E-01   -0.11517E-01  5094   0.291E-01    0.200E+00
RMM:   7    -0.117013526644E+04    0.16638E-01   -0.62821E-02  5179   0.209E-01    0.135E+00
RMM:   8    -0.117014498070E+04   -0.97143E-02   -0.51287E-02  5270   0.187E-01    0.158E+00
RMM:   9    -0.117013235504E+04    0.12626E-01   -0.20741E-02  5109   0.128E-01    0.860E-01
RMM:  10    -0.117013810714E+04   -0.57521E-02   -0.21579E-02  5517   0.111E-01    0.740E-01
RMM:  11    -0.117014093308E+04   -0.28259E-02   -0.15333E-02  5312   0.103E-01    0.715E-01
RMM:  12    -0.117013680501E+04    0.41281E-02   -0.66668E-03  5052   0.761E-02    0.363E-01
RMM:  13    -0.117013623632E+04    0.56869E-03   -0.20367E-03  5046   0.376E-02    0.187E-01
RMM:  14    -0.117013617103E+04    0.65290E-04   -0.40909E-04  3543   0.181E-02
   16 T= 19018. E= -.33589739E+03 F= -.11701362E+04 E0= -.11700604E+04  EK= 0.31712E+03 SP= 0.53E+01 SK= 0.51E+03
       N       E                     dE             d eps       ncg     rms          rms(c)
RMM:   1    -0.116843865042E+04    0.16976E+01   -0.10108E+02  4992   0.152E+01    0.293E+00
RMM:   2    -0.116752702083E+04    0.91163E+00   -0.14320E+00  5264   0.120E+00    0.485E+00
RMM:   3    -0.116750239907E+04    0.24622E-01   -0.37661E-01  5286   0.477E-01    0.936E+00
RMM:   4    -0.116715251055E+04    0.34989E+00   -0.23317E-01  5009   0.384E-01    0.396E+00
RMM:   5    -0.116707010976E+04    0.82401E-01   -0.18592E-01  5202   0.347E-01    0.213E+00
RMM:   6    -0.116707850091E+04   -0.83911E-02   -0.87438E-02  5153   0.257E-01    0.205E+00
RMM:   7    -0.116705960091E+04    0.18900E-01   -0.45007E-02  5056   0.194E-01    0.115E+00
RMM:   8    -0.116707367922E+04   -0.14078E-01   -0.39225E-02  5323   0.160E-01    0.111E+00
RMM:   9    -0.116706337493E+04    0.10304E-01   -0.21157E-02  5130   0.128E-01    0.659E-01
RMM:  10    -0.116705924061E+04    0.41343E-02   -0.76373E-03  5097   0.777E-02    0.327E-01
RMM:  11    -0.116705906017E+04    0.18044E-03   -0.19867E-03  4975   0.393E-02    0.232E-01
RMM:  12    -0.116705881788E+04    0.24229E-03   -0.67666E-04  4163   0.232E-02    0.130E-01
RMM:  13    -0.116705889347E+04   -0.75593E-04   -0.58062E-04  4124   0.205E-02
   17 T= 16267. E= -.33520872E+03 F= -.11670589E+04 E0= -.11669817E+04  EK= 0.27124E+03 SP= 0.60E+01 SK= 0.55E+03
       N       E                     dE             d eps       ncg     rms          rms(c)
RMM:   1    -0.117234453535E+04   -0.52857E+01   -0.17258E+02  4992   0.182E+01    0.693E+00
RMM:   2    -0.116941388399E+04    0.29307E+01   -0.53241E+00  5169   0.218E+00    0.888E+00
RMM:   3    -0.116982309298E+04   -0.40921E+00   -0.20328E+00  5079   0.113E+00    0.948E+00
RMM:   4    -0.116912541959E+04    0.69767E+00   -0.11767E+00  5117   0.873E-01    0.695E+00
RMM:   5    -0.116897655983E+04    0.14886E+00   -0.38494E-01  5066   0.484E-01    0.141E+01
RMM:   6    -0.116855472332E+04    0.42184E+00   -0.36144E-01  5005   0.491E-01    0.439E+00
RMM:   7    -0.116853309663E+04    0.21627E-01   -0.20350E-01  5069   0.402E-01    0.342E+00
RMM:   8    -0.116852607408E+04    0.70226E-02   -0.11641E-01  5245   0.279E-01    0.285E+00
RMM:   9    -0.116846381184E+04    0.62262E-01   -0.54572E-02  5084   0.200E-01    0.133E+00
RMM:  10    -0.116846508776E+04   -0.12759E-02   -0.26512E-02  5322   0.129E-01    0.115E+00
RMM:  11    -0.116846126414E+04    0.38236E-02   -0.13594E-02  5365   0.934E-02    0.974E-01
RMM:  12    -0.116845798808E+04    0.32761E-02   -0.10199E-02  5243   0.846E-02    0.707E-01
RMM:  13    -0.116845773990E+04    0.24818E-03   -0.85298E-03  5305   0.756E-02    0.436E-01
RMM:  14    -0.116845616443E+04    0.15755E-02   -0.25196E-03  4950   0.435E-02    0.247E-01
RMM:  15    -0.116845557761E+04    0.58682E-03   -0.13130E-03  4888   0.294E-02    0.157E-01
RMM:  16    -0.116845564695E+04   -0.69345E-04   -0.50299E-04  3818   0.187E-02
   18 T= 14024. E= -.33523678E+03 F= -.11684556E+04 E0= -.11683760E+04  EK= 0.23384E+03 SP= 0.68E+01 SK= 0.59E+03
       N       E                     dE             d eps       ncg     rms          rms(c)
RMM:   1    -0.117277255154E+04   -0.43170E+01   -0.46550E+01  4992   0.110E+01    0.238E+00
RMM:   2    -0.117230033509E+04    0.47222E+00   -0.55899E-01  5255   0.733E-01    0.362E+00
RMM:   3    -0.117223081960E+04    0.69515E-01   -0.22413E-01  5128   0.373E-01    0.241E+00
RMM:   4    -0.117236660138E+04   -0.13578E+00   -0.13380E-01  5278   0.276E-01    0.484E+00
RMM:   5    -0.117218893761E+04    0.17766E+00   -0.84906E-02  5131   0.243E-01    0.248E+00
RMM:   6    -0.117225594879E+04   -0.67011E-01   -0.68475E-02  5242   0.213E-01    0.324E+00
RMM:   7    -0.117220283935E+04    0.53109E-01   -0.47357E-02  5093   0.199E-01    0.131E+00
RMM:   8    -0.117219798169E+04    0.48577E-02   -0.20895E-02  5161   0.129E-01    0.129E+00
RMM:   9    -0.117219247032E+04    0.55114E-02   -0.71192E-03  4958   0.785E-02    0.607E-01
RMM:  10    -0.117219345773E+04   -0.98741E-03   -0.34977E-03  5108   0.503E-02    0.325E-01
RMM:  11    -0.117219380189E+04   -0.34416E-03   -0.21911E-03  5006   0.407E-02    0.273E-01
RMM:  12    -0.117219348188E+04    0.32001E-03   -0.10321E-03  4597   0.291E-02    0.217E-01
RMM:  13    -0.117219342232E+04    0.59553E-04   -0.25489E-04  3239   0.142E-02
   19 T= 12165. E= -.33537762E+03 F= -.11721934E+04 E0= -.11721129E+04  EK= 0.20284E+03 SP= 0.76E+01 SK= 0.63E+03
       N       E                     dE             d eps       ncg     rms          rms(c)
RMM:   1    -0.117204019905E+04    0.15328E+00   -0.20397E+01  4992   0.722E+00    0.214E+00
RMM:   2    -0.117200264979E+04    0.37549E-01   -0.36891E-01  5317   0.553E-01    0.649E+00
RMM:   3    -0.117197620375E+04    0.26446E-01   -0.10785E-01  5344   0.264E-01    0.444E+00
RMM:   4    -0.117196102893E+04    0.15175E-01   -0.15773E-01  5273   0.340E-01    0.203E+00
RMM:   5    -0.117200946779E+04   -0.48439E-01   -0.11817E-01  5395   0.255E-01    0.255E+00
RMM:   6    -0.117192195622E+04    0.87512E-01   -0.55719E-02  5029   0.192E-01    0.188E+00
RMM:   7    -0.117191040045E+04    0.11556E-01   -0.28352E-02  5330   0.138E-01    0.111E+00
RMM:   8    -0.117191074806E+04   -0.34761E-03   -0.12133E-02  5310   0.882E-02    0.751E-01
RMM:   9    -0.117190897194E+04    0.17761E-02   -0.69943E-03  5050   0.712E-02    0.315E-01
RMM:  10    -0.117190937569E+04   -0.40375E-03   -0.32274E-03  4929   0.461E-02    0.345E-01
RMM:  11    -0.117190853161E+04    0.84407E-03   -0.14466E-03  4689   0.290E-02    0.263E-01
RMM:  12    -0.117190829927E+04    0.23234E-03   -0.71332E-04  4256   0.208E-02    0.157E-01
RMM:  13    -0.117190833781E+04   -0.38534E-04   -0.25686E-04  3227   0.148E-02
   20 T= 10347. E= -.33487371E+03 F= -.11719083E+04 E0= -.11718279E+04  EK= 0.17254E+03 SP= 0.84E+01 SK= 0.66E+03
       N       E                     dE             d eps       ncg     rms          rms(c)
RMM:   1    -0.117109861367E+04    0.80969E+00   -0.17957E+01  4992   0.703E+00    0.167E+00
RMM:   2    -0.117118558690E+04   -0.86973E-01   -0.35067E-01  5446   0.483E-01    0.729E+00
RMM:   3    -0.117107714115E+04    0.10845E+00   -0.10099E-01  5417   0.255E-01    0.406E+00
RMM:   4    -0.117104753899E+04    0.29602E-01   -0.11078E-01  5326   0.294E-01    0.140E+00
RMM:   5    -0.117107713038E+04   -0.29591E-01   -0.85965E-02  5527   0.200E-01    0.165E+00
RMM:   6    -0.117107092915E+04    0.62012E-02   -0.48002E-02  5354   0.160E-01    0.170E+00
RMM:   7    -0.117104524056E+04    0.25689E-01   -0.26743E-02  5065   0.143E-01    0.567E-01
RMM:   8    -0.117104819244E+04   -0.29519E-02   -0.17161E-02  5383   0.100E-01    0.536E-01
RMM:   9    -0.117104558734E+04    0.26051E-02   -0.70399E-03  5314   0.609E-02    0.311E-01
RMM:  10    -0.117104423356E+04    0.13538E-02   -0.26013E-03  4951   0.372E-02    0.156E-01
RMM:  11    -0.117104412875E+04    0.10481E-03   -0.10860E-03  4742   0.249E-02    0.984E-02
RMM:  12    -0.117104406405E+04    0.64699E-04   -0.28242E-04  3284   0.149E-02
   21 T=  8732. E= -.33448759E+03 F= -.11710441E+04 E0= -.11709638E+04  EK= 0.14560E+03 SP= 0.92E+01 SK= 0.68E+03
       N       E                     dE             d eps       ncg     rms          rms(c)
RMM:   1    -0.117175697665E+04   -0.71285E+00   -0.14129E+01  4992   0.631E+00    0.145E+00
RMM:   2    -0.117178175728E+04   -0.24781E-01   -0.21280E-01  5529   0.376E-01    0.322E+00
RMM:   3    -0.117179459361E+04   -0.12836E-01   -0.46647E-02  5495   0.166E-01    0.529E+00
RMM:   4    -0.117175338005E+04    0.41214E-01   -0.83235E-02  5354   0.263E-01    0.168E+00
RMM:   5    -0.117178856698E+04   -0.35187E-01   -0.58945E-02  5482   0.193E-01    0.146E+00
RMM:   6    -0.117176560417E+04    0.22963E-01   -0.33123E-02  5286   0.144E-01    0.953E-01
RMM:   7    -0.117175568440E+04    0.99198E-02   -0.19302E-02  5267   0.109E-01    0.486E-01
RMM:   8    -0.117175500450E+04    0.67991E-03   -0.98385E-03  5374   0.739E-02    0.355E-01
RMM:   9    -0.117175452527E+04    0.47923E-03   -0.30341E-03  4802   0.423E-02    0.315E-01
RMM:  10    -0.117175372587E+04    0.79940E-03   -0.13558E-03  4705   0.271E-02    0.210E-01
RMM:  11    -0.117175360179E+04    0.12408E-03   -0.78821E-04  4340   0.208E-02    0.121E-01
RMM:  12    -0.117175354989E+04    0.51892E-04   -0.25509E-04  3257   0.142E-02
   22 T=  7419. E= -.33426019E+03 F= -.11717535E+04 E0= -.11716733E+04  EK= 0.12370E+03 SP= 0.10E+02 SK= 0.70E+03
       N       E                     dE             d eps       ncg     rms          rms(c)
RMM:   1    -0.117374283571E+04   -0.19892E+01   -0.64002E+00  4992   0.435E+00    0.917E-01
RMM:   2    -0.117374389644E+04   -0.10607E-02   -0.75035E-02  5752   0.217E-01    0.882E-01
RMM:   3    -0.117379591982E+04   -0.52023E-01   -0.28167E-02  5404   0.116E-01    0.403E+00
RMM:   4    -0.117374522228E+04    0.50698E-01   -0.28274E-02  5248   0.164E-01    0.145E+00
RMM:   5    -0.117375662248E+04   -0.11400E-01   -0.17282E-02  5122   0.144E-01    0.855E-01
RMM:   6    -0.117375165234E+04    0.49701E-02   -0.12341E-02  5277   0.829E-02    0.446E-01
RMM:   7    -0.117374858201E+04    0.30703E-02   -0.67065E-03  5303   0.589E-02    0.261E-01
RMM:   8    -0.117374735322E+04    0.12288E-02   -0.17362E-03  4740   0.324E-02    0.992E-02
RMM:   9    -0.117374729195E+04    0.61266E-04   -0.60617E-04  4088   0.203E-02
   23 T=  6360. E= -.33407900E+03 F= -.11737473E+04 E0= -.11736671E+04  EK= 0.10605E+03 SP= 0.11E+02 SK= 0.72E+03
       N       E                     dE             d eps       ncg     rms          rms(c)
RMM:   1    -0.117594356289E+04   -0.21962E+01   -0.45287E+00  4992   0.354E+00    0.747E-01
RMM:   2    -0.117595669082E+04   -0.13128E-01   -0.84223E-02  5583   0.224E-01    0.113E+00
RMM:   3    -0.117596478013E+04   -0.80893E-02   -0.21480E-02  5310   0.108E-01    0.286E+00
RMM:   4    -0.117594136112E+04    0.23419E-01   -0.14240E-02  5217   0.120E-01    0.155E+00
RMM:   5    -0.117594816962E+04   -0.68085E-02   -0.18611E-02  5371   0.130E-01    0.802E-01
RMM:   6    -0.117594923731E+04   -0.10677E-02   -0.13226E-02  5294   0.830E-02    0.587E-01
RMM:   7    -0.117594361555E+04    0.56218E-02   -0.96792E-03  5091   0.750E-02    0.277E-01
RMM:   8    -0.117594249472E+04    0.11208E-02   -0.35762E-03  4982   0.410E-02    0.144E-01
RMM:   9    -0.117594225730E+04    0.23743E-03   -0.86515E-04  4424   0.215E-02    0.991E-02
RMM:  10    -0.117594211935E+04    0.13795E-03   -0.21323E-04  3144   0.133E-02    0.480E-02
RMM:  11    -0.117594211216E+04    0.71948E-05   -0.76611E-05  2732   0.872E-03
   24 T=  5470. E= -.33384905E+03 F= -.11759421E+04 E0= -.11758619E+04  EK= 0.91205E+02 SP= 0.12E+02 SK= 0.74E+03
       N       E                     dE             d eps       ncg     rms          rms(c)
RMM:   1    -0.117782996736E+04   -0.18878E+01   -0.37917E+00  4992   0.314E+00    0.600E-01
RMM:   2    -0.117784120467E+04   -0.11237E-01   -0.66743E-02  5609   0.197E-01    0.991E-01
RMM:   3    -0.117783508149E+04    0.61232E-02   -0.17789E-02  5255   0.974E-02    0.171E+00
RMM:   4    -0.117783416667E+04    0.91482E-03   -0.86223E-03  5293   0.797E-02    0.167E+00
RMM:   5    -0.117783261932E+04    0.15473E-02   -0.10491E-02  5309   0.104E-01    0.600E-01
RMM:   6    -0.117783430538E+04   -0.16861E-02   -0.75562E-03  5274   0.707E-02    0.468E-01
RMM:   7    -0.117783185091E+04    0.24545E-02   -0.60965E-03  5142   0.588E-02    0.304E-01
RMM:   8    -0.117783065230E+04    0.11986E-02   -0.31585E-03  4895   0.395E-02    0.150E-01
RMM:   9    -0.117783032603E+04    0.32627E-03   -0.72724E-04  4293   0.210E-02    0.754E-02
RMM:  10    -0.117783026095E+04    0.65074E-04   -0.14777E-04  2932   0.116E-02
   25 T=  4697. E= -.33357674E+03 F= -.11778303E+04 E0= -.11777501E+04  EK= 0.78323E+02 SP= 0.13E+02 SK= 0.75E+03
       N       E                     dE             d eps       ncg     rms          rms(c)
RMM:   1    -0.117954612635E+04   -0.17158E+01   -0.34980E+00  4992   0.298E+00    0.552E-01
RMM:   2    -0.117955184914E+04   -0.57228E-02   -0.64695E-02  5624   0.187E-01    0.819E-01
RMM:   3    -0.117956228640E+04   -0.10437E-01   -0.15412E-02  5389   0.883E-02    0.256E+00
RMM:   4    -0.117954258217E+04    0.19704E-01   -0.73665E-03  5041   0.955E-02    0.815E-01
RMM:   5    -0.117954913032E+04   -0.65482E-02   -0.63546E-03  5227   0.869E-02    0.420E-01
RMM:   6    -0.117955195507E+04   -0.28247E-02   -0.57655E-03  5205   0.520E-02    0.467E-01
RMM:   7    -0.117954782644E+04    0.41286E-02   -0.32964E-03  4862   0.474E-02    0.175E-01
RMM:   8    -0.117954796572E+04   -0.13928E-03   -0.16309E-03  4766   0.296E-02    0.160E-01
RMM:   9    -0.117954757112E+04    0.39460E-03   -0.48781E-04  3694   0.179E-02    0.800E-02
RMM:  10    -0.117954748475E+04    0.86371E-04   -0.14751E-04  2988   0.115E-02
   26 T=  4034. E= -.33326831E+03 F= -.11795475E+04 E0= -.11794674E+04  EK= 0.67273E+02 SP= 0.14E+02 SK= 0.77E+03
       N       E                     dE             d eps       ncg     rms          rms(c)
RMM:   1    -0.118163005949E+04   -0.20825E+01   -0.33605E+00  4992   0.284E+00    0.571E-01
RMM:   2    -0.118164181840E+04   -0.11759E-01   -0.68226E-02  5616   0.198E-01    0.897E-01
RMM:   3    -0.118164828295E+04   -0.64645E-02   -0.21841E-02  5319   0.102E-01    0.216E+00
RMM:   4    -0.118163225557E+04    0.16027E-01   -0.81766E-03  5111   0.875E-02    0.147E+00
RMM:   5    -0.118162938709E+04    0.28685E-02   -0.68716E-03  5051   0.992E-02    0.457E-01
RMM:   6    -0.118163212075E+04   -0.27337E-02   -0.52568E-03  5280   0.600E-02    0.382E-01
RMM:   7    -0.118163060882E+04    0.15119E-02   -0.25446E-03  4902   0.446E-02    0.178E-01
RMM:   8    -0.118163065686E+04   -0.48041E-04   -0.14769E-03  4701   0.289E-02    0.152E-01
RMM:   9    -0.118163043179E+04    0.22508E-03   -0.54281E-04  3811   0.183E-02    0.893E-02
RMM:  10    -0.118163031429E+04    0.11750E-03   -0.12461E-04  2950   0.113E-02    0.356E-02
RMM:  11    -0.118163031387E+04    0.42097E-06   -0.47212E-05  2714   0.705E-03
   27 T=  3495. E= -.33294504E+03 F= -.11816303E+04 E0= -.11815505E+04  EK= 0.58272E+02 SP= 0.14E+02 SK= 0.78E+03
       N       E                     dE             d eps       ncg     rms          rms(c)
RMM:   1    -0.118455674469E+04   -0.29264E+01   -0.25106E+00  4992   0.241E+00    0.446E-01
RMM:   2    -0.118456588802E+04   -0.91433E-02   -0.45770E-02  5880   0.162E-01    0.139E+00
RMM:   3    -0.118456148851E+04    0.43995E-02   -0.95790E-03  5283   0.780E-02    0.170E+00
RMM:   4    -0.118455979962E+04    0.16889E-02   -0.83169E-03  5226   0.948E-02    0.965E-01
RMM:   5    -0.118455911557E+04    0.68405E-03   -0.58058E-03  5242   0.779E-02    0.373E-01
RMM:   6    -0.118455873784E+04    0.37773E-03   -0.39531E-03  5044   0.478E-02    0.269E-01
RMM:   7    -0.118455806609E+04    0.67175E-03   -0.18208E-03  4805   0.362E-02    0.143E-01
RMM:   8    -0.118455816488E+04   -0.98794E-04   -0.10015E-03  4567   0.238E-02    0.132E-01
RMM:   9    -0.118455794193E+04    0.22295E-03   -0.37972E-04  3497   0.161E-02    0.688E-02
RMM:  10    -0.118455788064E+04    0.61284E-04   -0.81868E-05  2859   0.978E-03
   28 T=  3084. E= -.33264123E+03 F= -.11845579E+04 E0= -.11844782E+04  EK= 0.51425E+02 SP= 0.15E+02 SK= 0.79E+03
       N       E                     dE             d eps       ncg     rms          rms(c)
RMM:   1    -0.118831926839E+04   -0.37613E+01   -0.15231E+00  4992   0.187E+00    0.389E-01
RMM:   2    -0.118832282728E+04   -0.35589E-02   -0.32893E-02  5913   0.136E-01    0.543E-01
RMM:   3    -0.118832565452E+04   -0.28272E-02   -0.81089E-03  5165   0.661E-02    0.163E+00
RMM:   4    -0.118831865765E+04    0.69969E-02   -0.43539E-03  5072   0.695E-02    0.755E-01
RMM:   5    -0.118832060800E+04   -0.19504E-02   -0.36321E-03  5077   0.699E-02    0.251E-01
RMM:   6    -0.118832182831E+04   -0.12203E-02   -0.21860E-03  4912   0.367E-02    0.294E-01
RMM:   7    -0.118832033048E+04    0.14978E-02   -0.10279E-03  4715   0.251E-02    0.137E-01
RMM:   8    -0.118832018469E+04    0.14579E-03   -0.73502E-04  4295   0.213E-02    0.709E-02
RMM:   9    -0.118832014104E+04    0.43654E-04   -0.17961E-04  3022   0.127E-02
   29 T=  2782. E= -.33235262E+03 F= -.11883201E+04 E0= -.11882406E+04  EK= 0.46394E+02 SP= 0.16E+02 SK= 0.79E+03
       N       E                     dE             d eps       ncg     rms          rms(c)
RMM:   1    -0.119254283836E+04   -0.42227E+01   -0.91036E-01  4992   0.146E+00    0.406E-01
RMM:   2    -0.119256032309E+04   -0.17485E-01   -0.32322E-02  5541   0.137E-01    0.203E+00
RMM:   3    -0.119254719763E+04    0.13125E-01   -0.89753E-03  5002   0.868E-02    0.182E+00
RMM:   4    -0.119254169904E+04    0.54986E-02   -0.88756E-03  5074   0.111E-01    0.442E-01
RMM:   5    -0.119254335843E+04   -0.16594E-02   -0.34989E-03  5034   0.578E-02    0.248E-01
RMM:   6    -0.119254416640E+04   -0.80798E-03   -0.19549E-03  4875   0.300E-02    0.290E-01
RMM:   7    -0.119254290328E+04    0.12631E-02   -0.14294E-03  4673   0.325E-02    0.116E-01
RMM:   8    -0.119254279020E+04    0.11307E-03   -0.53908E-04  3773   0.191E-02    0.721E-02
RMM:   9    -0.119254277184E+04    0.18360E-04   -0.21318E-04  3108   0.133E-02
   30 T=  2553. E= -.33205398E+03 F= -.11925428E+04 E0= -.11924634E+04  EK= 0.42576E+02 SP= 0.17E+02 SK= 0.80E+03
       N       E                     dE             d eps       ncg     rms          rms(c)
RMM:   1    -0.119688218092E+04   -0.43394E+01   -0.59922E-01  4992   0.119E+00    0.377E-01
RMM:   2    -0.119690446957E+04   -0.22289E-01   -0.28307E-02  5414   0.131E-01    0.238E+00
RMM:   3    -0.119688305031E+04    0.21419E-01   -0.84738E-03  4903   0.921E-02    0.155E+00
RMM:   4    -0.119688098737E+04    0.20629E-02   -0.73891E-03  5030   0.107E-01    0.340E-01
RMM:   5    -0.119688232071E+04   -0.13333E-02   -0.29064E-03  5142   0.474E-02    0.238E-01
RMM:   6    -0.119688309934E+04   -0.77862E-03   -0.17371E-03  4842   0.284E-02    0.276E-01
RMM:   7    -0.119688187144E+04    0.12279E-02   -0.12630E-03  4599   0.286E-02    0.117E-01
RMM:   8    -0.119688173635E+04    0.13509E-03   -0.51610E-04  3792   0.191E-02    0.731E-02
RMM:   9    -0.119688176669E+04   -0.30336E-04   -0.18787E-04  3010   0.126E-02
   31 T=  2367. E= -.33174104E+03 F= -.11968818E+04 E0= -.11968026E+04  EK= 0.39473E+02 SP= 0.18E+02 SK= 0.81E+03
       N       E                     dE             d eps       ncg     rms          rms(c)
RMM:   1    -0.120114869697E+04   -0.42670E+01   -0.43838E-01  4992   0.100E+00    0.306E-01
RMM:   2    -0.120116545466E+04   -0.16758E-01   -0.19063E-02  5550   0.109E-01    0.225E+00
RMM:   3    -0.120114639694E+04    0.19058E-01   -0.59714E-03  4890   0.824E-02    0.982E-01
RMM:   4    -0.120114897192E+04   -0.25750E-02   -0.43264E-03  4949   0.842E-02    0.273E-01
RMM:   5    -0.120114966062E+04   -0.68870E-03   -0.22029E-03  5182   0.341E-02    0.254E-01
RMM:   6    -0.120114934917E+04    0.31145E-03   -0.12741E-03  4708   0.251E-02    0.198E-01
RMM:   7    -0.120114887043E+04    0.47874E-03   -0.88037E-04  4366   0.232E-02    0.116E-01
RMM:   8    -0.120114870573E+04    0.16471E-03   -0.33401E-04  3337   0.163E-02    0.596E-02
RMM:   9    -0.120114870306E+04    0.26684E-05   -0.12515E-04  2883   0.110E-02
   32 T=  2206. E= -.33142303E+03 F= -.12011487E+04 E0= -.12010694E+04  EK= 0.36792E+02 SP= 0.19E+02 SK= 0.81E+03
       N       E                     dE             d eps       ncg     rms          rms(c)
RMM:   1    -0.120523856659E+04   -0.40899E+01   -0.38062E-01  4992   0.896E-01    0.239E-01
RMM:   2    -0.120524786752E+04   -0.93009E-02   -0.17495E-02  5925   0.979E-02    0.157E+00
RMM:   3    -0.120523862565E+04    0.92419E-02   -0.41331E-03  4948   0.627E-02    0.816E-01
RMM:   4    -0.120523924579E+04   -0.62014E-03   -0.30794E-03  4920   0.652E-02    0.207E-01
RMM:   5    -0.120523958690E+04   -0.34111E-03   -0.12483E-03  4510   0.265E-02    0.181E-01
RMM:   6    -0.120523992120E+04   -0.33430E-03   -0.77690E-04  4264   0.199E-02    0.185E-01
RMM:   7    -0.120523941858E+04    0.50262E-03   -0.52499E-04  3782   0.192E-02    0.921E-02
RMM:   8    -0.120523932920E+04    0.89378E-04   -0.25884E-04  3218   0.149E-02
   33 T=  2062. E= -.33109406E+03 F= -.12052393E+04 E0= -.12051601E+04  EK= 0.34380E+02 SP= 0.20E+02 SK= 0.82E+03
       N       E                     dE             d eps       ncg     rms          rms(c)
RMM:   1    -0.120923060359E+04   -0.39912E+01   -0.51769E-01  4992   0.954E-01    0.346E-01
RMM:   2    -0.120923792388E+04   -0.73203E-02   -0.26379E-02  5725   0.125E-01    0.121E+00
RMM:   3    -0.120923455148E+04    0.33724E-02   -0.64682E-03  4988   0.678E-02    0.146E+00
RMM:   4    -0.120922866351E+04    0.58880E-02   -0.58555E-03  5076   0.812E-02    0.307E-01
RMM:   5    -0.120923095323E+04   -0.22897E-02   -0.27241E-03  4995   0.498E-02    0.252E-01
RMM:   6    -0.120923043040E+04    0.52283E-03   -0.12801E-03  4571   0.270E-02    0.163E-01
RMM:   7    -0.120923039596E+04    0.34445E-04   -0.60445E-04  3947   0.197E-02
   34 T=  1937. E= -.33072290E+03 F= -.12092304E+04 E0= -.12091508E+04  EK= 0.32294E+02 SP= 0.21E+02 SK= 0.83E+03
       N       E                     dE             d eps       ncg     rms          rms(c)
RMM:   1    -0.121359145015E+04   -0.43610E+01   -0.69406E-01  4992   0.108E+00    0.635E-01
RMM:   2    -0.121366949735E+04   -0.78047E-01   -0.60832E-02  5303   0.195E-01    0.242E+00
RMM:   3    -0.121359618510E+04    0.73312E-01   -0.22130E-02  5147   0.117E-01    0.119E+00
RMM:   4    -0.121359333652E+04    0.28486E-02   -0.90635E-03  5072   0.759E-02    0.173E+00
RMM:   5    -0.121358827976E+04    0.50568E-02   -0.90368E-03  5210   0.935E-02    0.713E-01
RMM:   6    -0.121358953556E+04   -0.12558E-02   -0.64931E-03  5135   0.757E-02    0.488E-01
RMM:   7    -0.121358682067E+04    0.27149E-02   -0.22981E-03  4774   0.416E-02    0.184E-01
RMM:   8    -0.121358695783E+04   -0.13717E-03   -0.14416E-03  4934   0.295E-02    0.167E-01
RMM:   9    -0.121358685825E+04    0.99578E-04   -0.70353E-04  4264   0.209E-02
   35 T=  1852. E= -.33034603E+03 F= -.12135869E+04 E0= -.12135074E+04  EK= 0.30874E+02 SP= 0.22E+02 SK= 0.83E+03
       N       E                     dE             d eps       ncg     rms          rms(c)
RMM:   1    -0.121859782215E+04   -0.50109E+01   -0.29089E-01  4995   0.737E-01    0.533E-01
RMM:   2    -0.121868285252E+04   -0.85030E-01   -0.63791E-02  5265   0.191E-01    0.245E+00
RMM:   3    -0.121860111170E+04    0.81741E-01   -0.26397E-02  5009   0.136E-01    0.114E+00
RMM:   4    -0.121859699042E+04    0.41213E-02   -0.90107E-03  5303   0.865E-02    0.899E-01
RMM:   5    -0.121859612305E+04    0.86736E-03   -0.31889E-03  5292   0.528E-02    0.474E-01
RMM:   6    -0.121859609556E+04    0.27495E-04   -0.24366E-03  5014   0.455E-02    0.262E-01
RMM:   7    -0.121859571690E+04    0.37866E-03   -0.88961E-04  4572   0.245E-02    0.194E-01
RMM:   8    -0.121859539886E+04    0.31804E-03   -0.53665E-04  3739   0.191E-02    0.705E-02
RMM:   9    -0.121859546639E+04   -0.67526E-04   -0.31821E-04  3323   0.158E-02
   36 T=  1812. E= -.33002324E+03 F= -.12185955E+04 E0= -.12185161E+04  EK= 0.30215E+02 SP= 0.23E+02 SK= 0.84E+03
