vasp.5.4.1 08Jul2015 (build Apr 24 2014 00:09:29) complex standard with constrain (TS)    
 executed on IBM of Center for Computational Chemistry date 2016.06.17  15:09:53
 running on   24 total cores
 distrk:  each k-point on   24 cores,    1 groups
 distr:  one band on NCORES_PER_BAND=   1 cores,   24 groups


--------------------------------------------------------------------------------------------------------


 INCAR:
 POTCAR:   PAW_PBE Pt 05Jan2001                   
 POTCAR:   PAW_PBE O 08Apr2002                    

 ----------------------------------------------------------------------------- 
|                                                                             |
|           W    W    AA    RRRRR   N    N  II  N    N   GGGG   !!!           |
|           W    W   A  A   R    R  NN   N  II  NN   N  G    G  !!!           |
|           W    W  A    A  R    R  N N  N  II  N N  N  G       !!!           |
|           W WW W  AAAAAA  RRRRR   N  N N  II  N  N N  G  GGG   !            |
|           WW  WW  A    A  R   R   N   NN  II  N   NN  G    G                |
|           W    W  A    A  R    R  N    N  II  N    N   GGGG   !!!           |
|                                                                             |
|      For optimal performance we recommend to set                            |
|        NCORE= 4 - approx SQRT( number of cores)                             |
|      NCORE specifies how many cores store one orbital (NPAR=cpu/NCORE).     |
|      This setting can  greatly improve the performance of VASP for DFT.     |
|      The default, NPAR=number of cores might be grossly inefficient         |
|      on modern multi-core architectures or massively parallel machines.     |
|      Do your own testing !!!!                                               |
|      Unfortunately you need to use the default for GW and RPA calculations. |
|      (for HF NCORE is supported but not extensively tested yet)             |
|                                                                             |
 ----------------------------------------------------------------------------- 

 POTCAR:   PAW_PBE Pt 05Jan2001                   
  local pseudopotential read in
  partial core-charges read in
  atomic valenz-charges read in
  non local Contribution for L=           2  read in
    real space projection operators read in
  non local Contribution for L=           2  read in
    real space projection operators read in
  non local Contribution for L=           0  read in
    real space projection operators read in
  non local Contribution for L=           0  read in
    real space projection operators read in
  non local Contribution for L=           1  read in
    real space projection operators read in
  non local Contribution for L=           1  read in
    real space projection operators read in
    PAW grid and wavefunctions read in
 
   number of l-projection  operators is LMAX  =           6
   number of lm-projection operators is LMMAX =          18
 
 POTCAR:   PAW_PBE O 08Apr2002                    
  local pseudopotential read in
  atomic valenz-charges read in
  non local Contribution for L=           0  read in
    real space projection operators read in
  non local Contribution for L=           0  read in
    real space projection operators read in
  non local Contribution for L=           1  read in
    real space projection operators read in
  non local Contribution for L=           1  read in
    real space projection operators read in
    PAW grid and wavefunctions read in
 
   number of l-projection  operators is LMAX  =           4
   number of lm-projection operators is LMMAX =           8
 
 Optimization of the real space projectors (new method)

 maximal supplied QI-value         = 15.12
 optimisation between [QCUT,QGAM] = [ 10.73, 21.62] = [ 32.26,130.87] Ry 
 Optimized for a Real-space Cutoff    1.60 Angstroem

   l    n(q)    QCUT    max X(q) W(low)/X(q) W(high)/X(q)  e(spline) 
   2      9    10.734     3.643    0.28E-04    0.20E-04    0.48E-07
   2      9    10.734    46.462    0.45E-03    0.22E-03    0.31E-06
   0     10    10.734    13.796    0.18E-04    0.77E-06    0.13E-07
   0     10    10.734    57.669    0.41E-04    0.10E-04    0.24E-06
   1     10    10.734     7.440    0.91E-05    0.13E-04    0.23E-07
   1     10    10.734    10.255    0.28E-04    0.71E-04    0.78E-07
 Optimization of the real space projectors (new method)

 maximal supplied QI-value         = 24.76
 optimisation between [QCUT,QGAM] = [ 10.64, 21.54] = [ 31.73,129.89] Ry 
 Optimized for a Real-space Cutoff    1.23 Angstroem

   l    n(q)    QCUT    max X(q) W(low)/X(q) W(high)/X(q)  e(spline) 
   0      8    10.645     4.192    0.69E-04    0.93E-04    0.58E-07
   0      8    10.645     8.473    0.40E-03    0.65E-03    0.17E-06
   1      7    10.645     2.474    0.80E-04    0.12E-03    0.30E-07
   1      7    10.645     3.912    0.24E-03    0.53E-03    0.16E-06
 PAW_PBE Pt 05Jan2001                   :
 energy of atom  1       EATOM= -729.1171
 kinetic energy error for atom=    0.0051 (will be added to EATOM!!)
 PAW_PBE O 08Apr2002                    :
 energy of atom  2       EATOM= -432.3788
 kinetic energy error for atom=    0.0389 (will be added to EATOM!!)
 
 
 POSCAR: Created by VASPy                        
  positions in direct lattice
  No initial velocities read in
 exchange correlation table for  LEXCH =        8
   RHO(1)=    0.500       N(1)  =     2000
   RHO(2)=  100.500       N(2)  =     4000
 


--------------------------------------------------------------------------------------------------------


 ion  position               nearest neighbor table
   1  0.200  0.151  0.065-   3 2.81  27 2.81  16 2.81   6 2.81  38 2.81  80 2.81  14 2.81   8 2.81
                            73 2.81  25 2.81
   2  0.321  0.197  0.261-  15 2.77   7 2.79  27 2.80   3 2.80  74 2.80  38 2.81  39 2.81  26 2.81
                            14 2.81  35 2.82  28 2.87   4 2.91
   3  0.170  0.015  0.195-  79 2.76   7 2.77  74 2.79   2 2.80   1 2.81  73 2.81  14 2.81  78 2.81
                             6 2.81  27 2.81  75 2.81  90 2.84
   4  0.280  0.056  0.395-  13 2.69  85 2.69  77 2.70  79 2.77   7 2.78  76 2.81  28 2.82  74 2.90
                             2 2.91  15 3.03
   5  0.101  0.239  0.447-  20 2.71  44 2.71   7 2.72  31 2.73  28 2.73  77 2.80  29 2.81
   6  0.018  0.083  0.130-   8 2.81  80 2.81  19 2.81   1 2.81  89 2.81  27 2.81  17 2.81   3 2.81
                            30 2.81  78 2.81  18 2.82  90 2.82
   7  0.138  0.130  0.323-   5 2.72  77 2.74  27 2.75   3 2.77  18 2.77   4 2.78  28 2.79  90 2.79
                             2 2.79  31 2.81  79 2.82  20 2.98
   8  0.049  0.219  0.000-   6 2.81  30 2.81  17 2.81  25 2.81   1 2.81  32 2.81  80 2.81
   9  0.534  0.151  0.065-  11 2.81  35 2.81  24 2.81  14 2.81  46 2.81  88 2.81  16 2.81  22 2.81
                            81 2.81  33 2.81
  10  0.654  0.197  0.260-  15 2.76  23 2.78  47 2.79  35 2.80  46 2.80  82 2.81  11 2.81  34 2.81
                            22 2.81  43 2.81  36 2.89  12 2.90
  11  0.503  0.015  0.195-  15 2.73  82 2.78  10 2.81   9 2.81  81 2.81  22 2.81  86 2.81  14 2.81
                            35 2.81  83 2.81  74 2.82  87 2.82
  12  0.617  0.060  0.396-  21 2.70  93 2.70  85 2.72  36 2.79  84 2.79  15 2.82  87 2.82  10 2.90
                            82 2.91  23 2.94
  13  0.434  0.231  0.446-  85 2.64   4 2.69  15 2.71  36 2.72  39 2.74  37 2.75  28 2.76
  14  0.352  0.083  0.130-  74 2.80  16 2.81  88 2.81   3 2.81   9 2.81  35 2.81  73 2.81  11 2.81
                             1 2.81  86 2.81  38 2.81   2 2.81
  15  0.473  0.130  0.320-  13 2.71  35 2.72  85 2.72  11 2.73  10 2.76   2 2.77  74 2.78  36 2.80
                            12 2.82  87 2.83  39 2.84   4 3.03
  16  0.382  0.219  0.000-  14 2.81  38 2.81   1 2.81  33 2.81   9 2.81  40 2.81  88 2.81
  17  0.867  0.151  0.065-  19 2.81  43 2.81  22 2.81   8 2.81  96 2.81  30 2.81   6 2.81  24 2.81
                            89 2.81  41 2.81
  18  0.986  0.196  0.261-   7 2.77  23 2.78  43 2.79  19 2.79  31 2.79  90 2.80  42 2.81  30 2.82
                             6 2.82  27 2.83  44 2.90  20 2.91
  19  0.837  0.015  0.195-  95 2.77  23 2.78  90 2.79  18 2.79  17 2.81  89 2.81   6 2.81  94 2.81
                            22 2.81  43 2.81  91 2.81  82 2.83
  20  0.948  0.057  0.397-  77 2.69  93 2.70   5 2.71  23 2.80  95 2.80  92 2.80  44 2.82  90 2.91
                            18 2.91   7 2.98
  21  0.768  0.240  0.448-  12 2.70  44 2.70  36 2.71  23 2.73  47 2.74  45 2.80  93 2.81
  22  0.685  0.083  0.130-  24 2.81  96 2.81  11 2.81  17 2.81  81 2.81  43 2.81  19 2.81   9 2.81
                            94 2.81  46 2.81  82 2.81  10 2.81
  23  0.805  0.129  0.323-  21 2.73  93 2.75  43 2.77  10 2.78  18 2.78  19 2.78  44 2.79  20 2.80
                            82 2.80  95 2.81  47 2.81  12 2.94
  24  0.715  0.219  0.000-  22 2.81  46 2.81   9 2.81  41 2.81  17 2.81  48 2.81  96 2.81
  25  0.200  0.401  0.065-  27 2.81  51 2.81  40 2.81  30 2.81  62 2.81   8 2.81  38 2.81  32 2.81
                             1 2.81  49 2.81
  26  0.321  0.448  0.260-  39 2.76  50 2.79  51 2.80  62 2.80  31 2.80  59 2.81  27 2.81   2 2.81
                            38 2.81  63 2.82  28 2.87  52 2.89
  27  0.170  0.265  0.195-   7 2.75  31 2.78   2 2.80  25 2.81   1 2.81  38 2.81   6 2.81  30 2.81
                             3 2.81  51 2.81  26 2.81  18 2.83
  28  0.283  0.309  0.393-  37 2.70   5 2.73  13 2.76   7 2.79  31 2.79  52 2.80   4 2.82  26 2.87
                             2 2.87  39 2.89
  29  0.102  0.490  0.447-  44 2.71  31 2.72  55 2.73  68 2.73  52 2.75  53 2.80   5 2.81
  30  0.018  0.333  0.130-  32 2.81   8 2.81  43 2.81  25 2.81  51 2.81  17 2.81  41 2.81  27 2.81
                             6 2.81  54 2.81  42 2.81  18 2.82
  31  0.138  0.380  0.323-  29 2.72   5 2.73  51 2.76  27 2.78  42 2.78  28 2.79  18 2.79  55 2.79
                            26 2.80   7 2.81  52 2.84  44 2.96
  32  0.049  0.469  0.000-  30 2.81  54 2.81  41 2.81  49 2.81  25 2.81   8 2.81  56 2.81
  33  0.534  0.401  0.065-  35 2.81  59 2.81  48 2.81  38 2.81  16 2.81  70 2.81  46 2.81  40 2.81
                             9 2.81  57 2.81
  34  0.653  0.447  0.261-  59 2.78  35 2.79  47 2.79  71 2.79  58 2.80  10 2.81  70 2.81  46 2.82
                            39 2.82  67 2.83  60 2.89  36 2.89
  35  0.503  0.265  0.195-  15 2.72  34 2.79  10 2.80  33 2.81   9 2.81  46 2.81  14 2.81  38 2.81
                            11 2.81  59 2.81   2 2.82  39 2.84
  36  0.616  0.307  0.395-  45 2.71  21 2.71  13 2.72  12 2.79  15 2.80  60 2.81  39 2.82  34 2.89
                            10 2.89  47 2.95
  37  0.433  0.475  0.458-  97 1.79  28 2.70  13 2.75  39 2.75  60 2.80  52 2.81  63 2.84  61 3.10

  38  0.352  0.333  0.130-   2 2.81  40 2.81  16 2.81  27 2.81  33 2.81  59 2.81   1 2.81  25 2.81
                            35 2.81  14 2.81  62 2.81  26 2.81
  39  0.470  0.382  0.326-  13 2.74  37 2.75  60 2.76  26 2.76  63 2.78  59 2.79   2 2.81  36 2.82
                            34 2.82  35 2.84  15 2.84  28 2.89
  40  0.382  0.469  0.000-  38 2.81  62 2.81  25 2.81  57 2.81  33 2.81  16 2.81  64 2.81
  41  0.867  0.401  0.065-  43 2.81  67 2.81  46 2.81  32 2.81  54 2.81  24 2.81  30 2.81  48 2.81
                            65 2.81  17 2.81
  42  0.987  0.447  0.261-  31 2.78  55 2.78  47 2.79  67 2.79  43 2.80  54 2.81  66 2.81  18 2.81
                            30 2.81  51 2.82  44 2.90  68 2.91
  43  0.837  0.265  0.195-  23 2.77  47 2.78  18 2.79  42 2.80  41 2.81  17 2.81  30 2.81  22 2.81
                            46 2.81  19 2.81  67 2.81  10 2.81
  44  0.949  0.308  0.396-  21 2.70   5 2.71  29 2.71  23 2.79  47 2.80  68 2.80  20 2.82  42 2.90
                            18 2.90  31 2.96
  45  0.767  0.489  0.448-  68 2.70  36 2.71  60 2.71  47 2.73  71 2.75  21 2.80  69 2.81
  46  0.685  0.333  0.130-  10 2.80  48 2.81  24 2.81  41 2.81  35 2.81  67 2.81   9 2.81  33 2.81
                            43 2.81  70 2.81  22 2.81  34 2.82
  47  0.805  0.380  0.323-  45 2.73  21 2.74  67 2.76  43 2.78  68 2.78  10 2.79  42 2.79  34 2.79
                            44 2.80  71 2.81  23 2.81  36 2.95
  48  0.715  0.469  0.000-  46 2.81  70 2.81  33 2.81  65 2.81  41 2.81  24 2.81  72 2.81
  49  0.200  0.651  0.065-  51 2.81  75 2.81  64 2.81  54 2.81  86 2.81  32 2.81  62 2.81  56 2.81
                            25 2.81  73 2.81
  50  0.321  0.696  0.261-  87 2.77  26 2.79  63 2.79  51 2.80  62 2.81  83 2.81  55 2.81  75 2.81
                            86 2.81  74 2.82  76 2.86  52 2.89
  51  0.170  0.515  0.195-  31 2.76  55 2.77  26 2.80  50 2.80  49 2.81  25 2.81  62 2.81  30 2.81
                            54 2.81  27 2.81  75 2.81  42 2.82
  52  0.287  0.559  0.396-  29 2.75  63 2.78  61 2.79  28 2.80  76 2.80  37 2.81  31 2.84  55 2.84
                            50 2.89  26 2.89
  53  0.100  0.738  0.447-  68 2.70  55 2.72  92 2.72  79 2.73  76 2.73  29 2.80  77 2.82
  54  0.018  0.583  0.130-  56 2.81  32 2.81  67 2.81  49 2.81  41 2.81  75 2.81  65 2.81  51 2.81
                            30 2.81  78 2.81  42 2.81  66 2.82
  55  0.138  0.628  0.323-  53 2.72  29 2.73  75 2.77  51 2.77  76 2.78  42 2.78  66 2.79  31 2.79
                            50 2.81  79 2.81  52 2.84  68 2.97
  56  0.049  0.719  0.000-  54 2.81  78 2.81  65 2.81  73 2.81  49 2.81  32 2.81  80 2.81
  57  0.534  0.651  0.065-  59 2.81  83 2.81  72 2.81  62 2.81  40 2.81  94 2.81  70 2.81  64 2.81
                            33 2.81  81 2.81
  58  0.651  0.696  0.261-  83 2.77  59 2.77  71 2.79  34 2.80  95 2.81  82 2.81  94 2.83  70 2.83
                            91 2.86  63 2.87  60 2.88  84 2.88
  59  0.503  0.515  0.195-  58 2.77  34 2.78  39 2.79  57 2.81  33 2.81  70 2.81  38 2.81  62 2.81
                            35 2.81  83 2.81  26 2.81  63 2.93
  60  0.616  0.557  0.395-  69 2.70  45 2.71  39 2.76  63 2.77  37 2.80  36 2.81  84 2.84  58 2.88
                            34 2.89  71 2.94
  61  0.433  0.751  0.457-  98 1.79  76 2.71  85 2.76  87 2.77  52 2.79  63 2.79  84 2.81  37 3.10

  62  0.352  0.583  0.130-  26 2.80  50 2.81  64 2.81  40 2.81  51 2.81  57 2.81  83 2.81  25 2.81
                            49 2.81  59 2.81  38 2.81  86 2.81
  63  0.468  0.629  0.332-  84 2.76  60 2.77  87 2.78  39 2.78  52 2.78  50 2.79  61 2.79  26 2.82
                            37 2.84  58 2.87  83 2.91  59 2.93
  64  0.382  0.719  0.000-  62 2.81  86 2.81  49 2.81  81 2.81  57 2.81  40 2.81  88 2.81
  65  0.867  0.651  0.065-  67 2.81  91 2.81  70 2.81  56 2.81  78 2.81  48 2.81  54 2.81  72 2.81
                            89 2.81  41 2.81
  66  0.986  0.697  0.261-  79 2.78  91 2.78  55 2.79  71 2.79  67 2.80  90 2.80  42 2.81  78 2.81
                            54 2.82  75 2.84  68 2.90  92 2.92
  67  0.837  0.515  0.195-  47 2.76  71 2.78  42 2.79  66 2.80  65 2.81  41 2.81  54 2.81  46 2.81
                            70 2.81  43 2.81  91 2.81  34 2.83
  68  0.948  0.558  0.396-  53 2.70  45 2.70  29 2.73  47 2.78  71 2.80  44 2.80  92 2.81  66 2.90
                            42 2.91  55 2.97
  69  0.765  0.739  0.448-  60 2.70  92 2.71  84 2.71  71 2.73  95 2.74  45 2.81  93 2.82
  70  0.685  0.583  0.130-  72 2.81  48 2.81  65 2.81  59 2.81  91 2.81  33 2.81  57 2.81  67 2.81
                            46 2.81  94 2.81  34 2.81  58 2.83
  71  0.804  0.629  0.323-  69 2.73  45 2.75  91 2.76  67 2.78  66 2.79  34 2.79  58 2.79  92 2.80
                            95 2.80  68 2.80  47 2.81  60 2.94
  72  0.715  0.719  0.000-  70 2.81  94 2.81  57 2.81  89 2.81  65 2.81  48 2.81  96 2.81
  73  0.200  0.901  0.065-  75 2.81   3 2.81  88 2.81  78 2.81  14 2.81  56 2.81  86 2.81  80 2.81
                             1 2.81  49 2.81
  74  0.321  0.947  0.260-  15 2.78  87 2.79   3 2.79  14 2.80  75 2.80   2 2.80  79 2.81  86 2.81
                            11 2.82  50 2.82  76 2.87   4 2.90
  75  0.170  0.765  0.195-  55 2.77  79 2.77  74 2.80  73 2.81  49 2.81  86 2.81  54 2.81  78 2.81
                            51 2.81   3 2.81  50 2.81  66 2.84
  76  0.283  0.807  0.393-  61 2.71  53 2.73  85 2.76  55 2.78  79 2.79  52 2.80   4 2.81  50 2.86
                            74 2.87  87 2.89
  77  0.099  0.989  0.447-  92 2.69  20 2.69   4 2.70  79 2.72   7 2.74   5 2.80  53 2.82
  78  0.018  0.833  0.130-  80 2.81  56 2.81  91 2.81  73 2.81  65 2.81   3 2.81  89 2.81  75 2.81
                            54 2.81   6 2.81  66 2.81  90 2.82
  79  0.137  0.879  0.323-  77 2.72  53 2.73   3 2.76   4 2.77  75 2.77  90 2.78  66 2.78  76 2.79
                            74 2.81  55 2.81   7 2.82  92 2.98
  80  0.049  0.969  0.000-  78 2.81   6 2.81  89 2.81   1 2.81  73 2.81  56 2.81   8 2.81
  81  0.534  0.901  0.065-  83 2.81  11 2.81  86 2.81  96 2.81  22 2.81  64 2.81  94 2.81  88 2.81
                             9 2.81  57 2.81
  82  0.653  0.947  0.261-  11 2.78  95 2.78  83 2.79  23 2.80  10 2.81  22 2.81  58 2.81  94 2.82
                            87 2.82  19 2.83  84 2.87  12 2.91
  83  0.503  0.765  0.195-  58 2.77  82 2.79  81 2.81  57 2.81  94 2.81  62 2.81  86 2.81  59 2.81
                            11 2.81  50 2.81  87 2.81  63 2.91
  84  0.616  0.810  0.395-  93 2.71  69 2.71  63 2.76  87 2.77  12 2.79  61 2.81  60 2.84  82 2.87
                            58 2.88  95 2.93
  85  0.434  0.997  0.446-  13 2.64   4 2.69  12 2.72  87 2.72  15 2.72  61 2.76  76 2.76
  86  0.352  0.833  0.130-  88 2.81  64 2.81  75 2.81  81 2.81  49 2.81  11 2.81  73 2.81  83 2.81
                            14 2.81  62 2.81  50 2.81  74 2.81
  87  0.470  0.877  0.326-  85 2.72  61 2.77  84 2.77  50 2.77  63 2.78  74 2.79  83 2.81  11 2.82
                            82 2.82  12 2.82  15 2.83  76 2.89
  88  0.382  0.969  0.000-  86 2.81  14 2.81  73 2.81   9 2.81  81 2.81  64 2.81  16 2.81
  89  0.867  0.901  0.065-  91 2.81  19 2.81  80 2.81  94 2.81  72 2.81   6 2.81  78 2.81  96 2.81
                            17 2.81  65 2.81
  90  0.986  0.947  0.261-  79 2.78  19 2.79   7 2.79  95 2.79  91 2.79  18 2.80  66 2.80   6 2.82
                            78 2.82   3 2.84  20 2.91  92 2.92
  91  0.837  0.765  0.195-  71 2.76  95 2.78  66 2.78  90 2.79  89 2.81  65 2.81  78 2.81  70 2.81
                            94 2.81  67 2.81  19 2.81  58 2.86
  92  0.947  0.807  0.397-  77 2.69  69 2.71  53 2.72  71 2.80  20 2.80  95 2.80  68 2.81  90 2.92
                            66 2.92  79 2.98
  93  0.767  0.990  0.448-  20 2.70  12 2.70  84 2.71  95 2.74  23 2.75  21 2.81  69 2.82
  94  0.685  0.833  0.130-  96 2.81  72 2.81  89 2.81  83 2.81  57 2.81  19 2.81  81 2.81  91 2.81
                            22 2.81  70 2.81  82 2.82  58 2.83
  95  0.804  0.879  0.323-  93 2.74  69 2.74  19 2.77  82 2.78  91 2.78  90 2.79  20 2.80  71 2.80
                            92 2.80  58 2.81  23 2.81  84 2.93
  96  0.715  0.969  0.000-  94 2.81  22 2.81  81 2.81  17 2.81  89 2.81  72 2.81  24 2.81
  97  0.450  0.494  0.554-  37 1.79
  98  0.447  0.748  0.554-  61 1.79
 
  Warning from LATTYP: Monoclinic adjustement (A1->A3, A2->A1, A3->A2)!
  Warning from LATTYP: Got some problem with cell dimensions!
  Tried to take original basis but could not verify dimensions!
  LATTYP: Found a simple monoclinic cell.
 ALAT       =    15.6296026899
 B/A-ratio  =     1.1758992359
 C/A-ratio  =     1.7960530202
 COS(beta)  =    -0.9339475705
  
  Lattice vectors:
  
 A1 = ( -13.9654422400,  -7.0178987800,   0.0000000000)
 A2 = (   0.0000000000,   0.0000000000, -18.3788378600)
 A3 = (  27.9308844800,   2.8071595100,   0.0000000000)


Analysis of symmetry for initial positions (statically):
=====================================================================
 Subroutine PRICEL returns:
 Original cell was already a primitive cell.
 

 Routine SETGRP: Setting up the symmetry group for a 
 simple monoclinic supercell.


 Subroutine GETGRP returns: Found  1 space group operations
 (whereof  1 operations were pure point group operations)
 out of a pool of  4 trial point group operations.


The static configuration has the point symmetry C_1 .


Analysis of symmetry for dynamics (positions and initial velocities):
=====================================================================
 Subroutine PRICEL returns:
 Original cell was already a primitive cell.
 

 Routine SETGRP: Setting up the symmetry group for a 
 simple monoclinic supercell.


 Subroutine GETGRP returns: Found  1 space group operations
 (whereof  1 operations were pure point group operations)
 out of a pool of  4 trial point group operations.


The dynamic configuration has the point symmetry C_1 .


Analysis of constrained symmetry for selective dynamics:
=====================================================================
 Subroutine PRICEL returns:
 Original cell was already a primitive cell.
 

 Routine SETGRP: Setting up the symmetry group for a 
 simple monoclinic supercell.


 Subroutine GETGRP returns: Found  1 space group operations
 (whereof  1 operations were pure point group operations)
 out of a pool of  4 trial point group operations.


The constrained configuration has the point symmetry C_1 .
 
 
 KPOINTS: mesh auto                               

Automatic generation of k-mesh.
Space group operators:
 irot       det(A)        alpha          n_x          n_y          n_z        tau_x        tau_y        tau_z
    1     1.000000     0.000000     1.000000     0.000000     0.000000     0.000000     0.000000     0.000000
 
 Subroutine IBZKPT returns following result:
 ===========================================
 
 Found      2 irreducible k-points:
 
 Following reciprocal coordinates:
            Coordinates               Weight
  0.000000  0.000000  0.000000      1.000000
  0.000000  0.500000  0.000000      1.000000
 
 Following cartesian coordinates:
            Coordinates               Weight
  0.000000  0.000000  0.000000      1.000000
  0.013426  0.044529  0.000000      1.000000
 
 
 Subroutine IBZKPT_HF returns following result:
 ==============================================
 
 Found      2 k-points in 1st BZ
 the following      2 k-points will be used (e.g. in the exchange kernel)
 Following reciprocal coordinates:   # in IRBZ
  0.000000  0.000000  0.000000    0.50000000   1 t-inv F
  0.000000  0.500000  0.000000    0.50000000   2 t-inv F


--------------------------------------------------------------------------------------------------------




 Dimension of arrays:
   k-points           NKPTS =      2   k-points in BZ     NKDIM =      2   number of bands    NBANDS=    600
   number of dos      NEDOS =    301   number of ions     NIONS =     98
   non local maximal  LDIM  =      6   non local SUM 2l+1 LMDIM =     18
   total plane-waves  NPLWV = 460800
   max r-space proj   IRMAX =   2797   max aug-charges    IRDMAX=   9882
   dimension x,y,z NGX =    80 NGY =   60 NGZ =   96
   dimension x,y,z NGXF=   160 NGYF=  120 NGZF=  192
   support grid    NGXF=   160 NGYF=  120 NGZF=  192
   ions per type =              96   2
 NGX,Y,Z   is equivalent  to a cutoff of   9.12,  8.88,  8.68 a.u.
 NGXF,Y,Z  is equivalent  to a cutoff of  18.24, 17.77, 17.37 a.u.


 I would recommend the setting:
   dimension x,y,z NGX =    76 NGY =   58 NGZ =   95
 SYSTEM =  O2                                      
 POSCAR =  Created by VASPy                        

 Startparameter for this run:
   NWRITE =      1    write-flag & timer
   PREC   = normal    normal or accurate (medium, high low for compatibility)
   ISTART =      0    job   : 0-new  1-cont  2-samecut
   ICHARG =      2    charge: 1-file 2-atom 10-const
   ISPIN  =      1    spin polarized calculation?
   LNONCOLLINEAR =      F non collinear calculations
   LSORBIT =      F    spin-orbit coupling
   INIWAV =      1    electr: 0-lowe 1-rand  2-diag
   LASPH  =      F    aspherical Exc in radial PAW
   METAGGA=      F    non-selfconsistent MetaGGA calc.

 Electronic Relaxation 1
   ENCUT  =  450.0 eV  33.07 Ry    5.75 a.u.  25.23 19.42 31.79*2*pi/ulx,y,z
   ENINI  =  450.0     initial cutoff
   ENAUG  =  605.4 eV  augmentation charge cutoff
   NELM   =    300;   NELMIN=  3; NELMDL= -5     # of ELM steps 
   EDIFF  = 0.1E-05   stopping-criterion for ELM
   LREAL  =      T    real-space projection
   NLSPLINE    = F    spline interpolate recip. space projectors
   LCOMPAT=      F    compatible to vasp.4.4
   GGA_COMPAT  = T    GGA compatible to vasp.4.4-vasp.4.6
   LMAXPAW     = -100 max onsite density
   LMAXMIX     =    2 max onsite mixed and CHGCAR
   VOSKOWN=      0    Vosko Wilk Nusair interpolation
   ROPT   =   -0.00050  -0.00050
 Ionic relaxation
   EDIFFG = -.5E-01   stopping-criterion for IOM
   NSW    =    900    number of steps for IOM
   NBLOCK =      1;   KBLOCK =    900    inner block; outer block 
   IBRION =      5    ionic relax: 0-MD 1-quasi-New 2-CG
   NFREE  =      2    steps in history (QN), initial steepest desc. (CG)
   ISIF   =      0    stress and relaxation
   IWAVPR =     11    prediction:  0-non 1-charg 2-wave 3-comb
   ISYM   =      2    0-nonsym 1-usesym 2-fastsym
   LCORR  =      T    Harris-Foulkes like correction to forces

   POTIM  = 0.0500    time-step for ionic-motion
   TEIN   =    0.0    initial temperature
   TEBEG  =    0.0;   TEEND  =   0.0 temperature during run
   SMASS  =  -3.00    Nose mass-parameter (am)
   estimated Nose-frequenzy (Omega)   =  0.10E-29 period in steps =****** mass=  -0.486E-26a.u.
   SCALEE = 1.0000    scale energy and forces
   NPACO  =    256;   APACO  = 16.0  distance and # of slots for P.C.
   PSTRESS=    0.0 pullay stress

  Mass of Ions in am
   POMASS = 195.08 16.00
  Ionic Valenz
   ZVAL   =  10.00  6.00
  Atomic Wigner-Seitz radii
   RWIGS  =  -1.00 -1.00
  virtual crystal weights 
   VCA    =   1.00  1.00
   NELECT =     972.0000    total number of electrons
   NUPDOWN=      -1.0000    fix difference up-down

 DOS related values:
   EMIN   =  10.00;   EMAX   =-10.00  energy-range for DOS
   EFERMI =   0.00
   ISMEAR =     1;   SIGMA  =   0.10  broadening in eV -4-tet -1-fermi 0-gaus

 Electronic relaxation 2 (details)
   IALGO  =     68    algorithm
   LDIAG  =      T    sub-space diagonalisation (order eigenvalues)
   LSUBROT=      F    optimize rotation matrix (better conditioning)
   TURBO    =      0    0=normal 1=particle mesh
   IRESTART =      0    0=no restart 2=restart with 2 vectors
   NREBOOT  =      0    no. of reboots
   NMIN     =      0    reboot dimension
   EREF     =   0.00    reference energy to select bands
   IMIX   =      4    mixing-type and parameters
     AMIX     =   0.40;   BMIX     =  1.00
     AMIX_MAG =   1.60;   BMIX_MAG =  1.00
     AMIN     =   0.10
     WC   =   100.;   INIMIX=   1;  MIXPRE=   1;  MAXMIX= -45

 Intra band minimization:
   WEIMIN = 0.0010     energy-eigenvalue tresh-hold
   EBREAK =  0.42E-09  absolut break condition
   DEPER  =   0.30     relativ break condition  

   TIME   =   0.40     timestep for ELM

  volume/ion in A,a.u.               =      29.41       198.46
  Fermi-wavevector in a.u.,A,eV,Ry     =   1.139542  2.153422 17.667925  1.298556
  Thomas-Fermi vector in A             =   2.276245
 
 Write flags
   LWAVE  =      F    write WAVECAR
   LCHARG =      F    write CHGCAR
   LVTOT  =      F    write LOCPOT, total local potential
   LVHAR  =      F    write LOCPOT, Hartree potential only
   LELF   =      F    write electronic localiz. function (ELF)
   LORBIT =      0    0 simple, 1 ext, 2 COOP (PROOUT)


 Dipole corrections
   LMONO  =      F    monopole corrections only (constant potential shift)
   LDIPOL =      F    correct potential (dipole corrections)
   IDIPOL =      0    1-x, 2-y, 3-z, 4-all directions 
   EPSILON=  1.0000000 bulk dielectric constant

 Exchange correlation treatment:
   GGA     =    --    GGA type
   LEXCH   =     8    internal setting for exchange type
   VOSKOWN=      0    Vosko Wilk Nusair interpolation
   LHFCALC =     F    Hartree Fock is set to
   LHFONE  =     F    Hartree Fock one center treatment
   AEXX    =    0.0000 exact exchange contribution

 Linear response parameters
   LEPSILON=     F    determine dielectric tensor
   LRPA    =     F    only Hartree local field effects (RPA)
   LNABLA  =     F    use nabla operator in PAW spheres
   LVEL    =     F    velocity operator in full k-point grid
   LINTERFAST=   F  fast interpolation
   KINTER  =     0    interpolate to denser k-point grid
   CSHIFT  =0.1000    complex shift for real part using Kramers Kronig
   OMEGAMAX=  -1.0    maximum frequency
   DEG_THRESHOLD= 0.2000000E-02 threshold for treating states as degnerate
   RTIME   =    0.100 relaxation time in fs

 Orbital magnetization related:
   ORBITALMAG=     F  switch on orbital magnetization
   LCHIMAG   =     F  perturbation theory with respect to B field
   DQ        =  0.001000  dq finite difference perturbation B field



--------------------------------------------------------------------------------------------------------


 finite differences
   using selective dynamics as specified on POSCAR
 charge density and potential will be updated during run
 non-spin polarized calculation
 RMM-DIIS sequential band-by-band and
  variant of blocked Davidson during initial phase
 perform sub-space diagonalisation
    before iterative eigenvector-optimisation
 modified Broyden-mixing scheme, WC =      100.0
 initial mixing is a Kerker type mixing with AMIX =  0.4000 and BMIX =      1.0000
 Hartree-type preconditioning will be used
 using additional bands          114
 real space projection scheme for non local part
 use partial core corrections
 calculate Harris-corrections to forces 
   (improved forces if not selfconsistent)
 use gradient corrections 
 use of overlap-Matrix (Vanderbilt PP)
 Methfessel and Paxton  Order N= 1 SIGMA  =   0.10


--------------------------------------------------------------------------------------------------------


  energy-cutoff  :      450.00
  volume of cell :     2882.04
      direct lattice vectors                 reciprocal lattice vectors
    13.965442240 -4.210739270  0.000000000     0.071605323  0.000000000  0.000000000
     0.000000000 11.228638050  0.000000000     0.026851996  0.089057996  0.000000000
     0.000000000  0.000000000 18.378837860     0.000000000  0.000000000  0.054410404

  length of vectors
    14.586428698 11.228638050 18.378837860     0.071605323  0.093018043  0.054410404


 
 k-points in units of 2pi/SCALE and weight: mesh auto                               
   0.00000000  0.00000000  0.00000000       0.500
   0.01342600  0.04452900  0.00000000       0.500
 
 k-points in reciprocal lattice and weights: mesh auto                               
   0.00000000  0.00000000  0.00000000       0.500
   0.00000000  0.50000000  0.00000000       0.500
 
 position of ions in fractional coordinates (direct lattice) 
   0.20018182  0.15131818  0.06512799
   0.32068024  0.19717865  0.26052653
   0.16987879  0.01495454  0.19538398
   0.27999241  0.05604977  0.39528478
   0.10057068  0.23914564  0.44660094
   0.01836364  0.08313636  0.13025599
   0.13802362  0.12975509  0.32250709
   0.04866667  0.21950000  0.00000000
   0.53351515  0.15131818  0.06512799
   0.65434547  0.19718568  0.26039041
   0.50321212  0.01495454  0.19538398
   0.61719290  0.05954138  0.39606425
   0.43366318  0.23130130  0.44623273
   0.35169697  0.08313636  0.13025599
   0.47299527  0.13004353  0.32043687
   0.38200000  0.21950000  0.00000000
   0.86684848  0.15131818  0.06512799
   0.98629622  0.19616208  0.26086184
   0.83654545  0.01495454  0.19538398
   0.94813861  0.05733559  0.39679076
   0.76812597  0.24048836  0.44793693
   0.68503030  0.08313636  0.13025599
   0.80493433  0.12949213  0.32328518
   0.71533333  0.21950000  0.00000000
   0.20018182  0.40131818  0.06512799
   0.32118788  0.44771019  0.26049275
   0.16987879  0.26495454  0.19538398
   0.28319878  0.30876509  0.39343817
   0.10182354  0.48964217  0.44700549
   0.01836364  0.33313636  0.13025599
   0.13798849  0.37959871  0.32287498
   0.04866667  0.46950000  0.00000000
   0.53351515  0.40131818  0.06512799
   0.65260725  0.44654838  0.26053027
   0.50321212  0.26495454  0.19538398
   0.61648338  0.30744062  0.39506334
   0.43338715  0.47495774  0.45757305
   0.35169697  0.33313636  0.13025599
   0.46991647  0.38201935  0.32582066
   0.38200000  0.46950000  0.00000000
   0.86684848  0.40131818  0.06512799
   0.98678943  0.44696386  0.26059350
   0.83654545  0.26495454  0.19538398
   0.94910173  0.30841856  0.39590352
   0.76681498  0.48903641  0.44785463
   0.68503030  0.33313636  0.13025599
   0.80499110  0.37981880  0.32300118
   0.71533333  0.46950000  0.00000000
   0.20018182  0.65131818  0.06512799
   0.32136533  0.69637133  0.26052198
   0.16987879  0.51495454  0.19538398
   0.28700372  0.55938791  0.39566598
   0.10029294  0.73843590  0.44655572
   0.01836364  0.58313636  0.13025599
   0.13786700  0.62845003  0.32294853
   0.04866667  0.71950000  0.00000000
   0.53351515  0.65131818  0.06512799
   0.65063483  0.69554633  0.26128882
   0.50321212  0.51495454  0.19538398
   0.61595600  0.55716589  0.39519634
   0.43297332  0.75115931  0.45681753
   0.35169697  0.58313636  0.13025599
   0.46781703  0.62873244  0.33205900
   0.38200000  0.71950000  0.00000000
   0.86684848  0.65131818  0.06512799
   0.98610489  0.69707621  0.26093814
   0.83654545  0.51495454  0.19538398
   0.94815051  0.55782409  0.39619215
   0.76546182  0.73853128  0.44795469
   0.68503030  0.58313636  0.13025599
   0.80391801  0.62941579  0.32307974
   0.71533333  0.71950000  0.00000000
   0.20018182  0.90131818  0.06512799
   0.32068419  0.94743317  0.26040711
   0.16987879  0.76495454  0.19538398
   0.28302037  0.80724803  0.39302015
   0.09911936  0.98880032  0.44665867
   0.01836364  0.83313636  0.13025599
   0.13719628  0.87853075  0.32284775
   0.04866667  0.96950000  0.00000000
   0.53351515  0.90131818  0.06512799
   0.65264269  0.94672161  0.26058843
   0.50321212  0.76495454  0.19538398
   0.61637317  0.81041728  0.39476185
   0.43424961  0.99682550  0.44622505
   0.35169697  0.83313636  0.13025599
   0.46974904  0.87663930  0.32563484
   0.38200000  0.96950000  0.00000000
   0.86684848  0.90131818  0.06512799
   0.98606722  0.94670657  0.26109405
   0.83654545  0.76495454  0.19538398
   0.94748054  0.80744682  0.39745733
   0.76736080  0.99018374  0.44836168
   0.68503030  0.83313636  0.13025599
   0.80374894  0.87881477  0.32331262
   0.71533333  0.96950000  0.00000000
   0.45022436  0.49389662  0.55396474
   0.44739456  0.74831923  0.55360067
 
 position of ions in cartesian coordinates  (Angst):
   2.79562761  0.85618363  1.19697684
   4.47844141  0.86374682  4.78817483
   2.37243239 -0.54739613  3.59093051
   3.91021785 -0.54961242  7.26487487
   1.40451399  2.26180289  8.20800620
   0.25645629  0.85618363  2.39395367
   1.92756084  0.87579143  5.92730544
   0.67965151  2.25976339  0.00000000
   7.45077502 -0.54739613  1.19697684
   9.13822391 -0.54115160  4.78567318
   7.02757980 -1.95097588  3.59093051
   8.61937186 -1.93026983  7.27920072
   6.05629808  0.77115597  8.20123891
   4.91160371 -0.54739613  2.39395367
   6.60558815 -0.53144806  5.88925721
   5.33479893  0.85618363  0.00000000
  12.10592244 -1.95097588  1.19697684
  13.77406294 -1.95040321  4.79433753
  11.68272722 -3.35455564  3.59093051
  13.24117496 -3.34856383  7.29255312
  10.72721882 -0.53402139  8.23256017
   9.56675112 -1.95097588  2.39395367
  11.24126396 -1.93534834  5.94160585
   9.98994634 -0.54739613  0.00000000
   2.79562761  3.66334314  1.19697684
   4.48553080  3.67473723  4.78755397
   2.37243239  2.25976339  3.59093051
   3.95499619  2.27453518  7.23093627
   1.42201072  5.06926229  8.21544138
   0.25645629  3.66334314  2.39395367
   1.92707032  3.68134293  5.93406686
   0.67965151  5.06692290  0.00000000
   7.45077502  2.25976339  1.19697684
   9.11394889  2.26617113  4.78824355
   7.02757980  0.85618363  3.59093051
   8.60946307  0.85628865  7.26080498
   6.05244327  3.50824826  8.40966086
   4.91160371  2.25976339  2.39395367
   6.56259126  2.31086124  5.98820500
   5.33479893  3.66334314  0.00000000
  12.10592244  0.85618363  1.19697684
  13.78095082  0.86368244  4.78940563
  11.68272722 -0.54739613  3.59093051
  13.25462534 -0.53329950  7.27624651
  10.70891027  2.26235495  8.23104769
   9.56675112  0.85618363  2.39395367
  11.24205676  0.87524015  5.93638624
   9.98994634  2.25976338  0.00000000
   2.79562761  6.47050265  1.19697684
   4.48800897  6.46611597  4.78809118
   2.37243239  5.06692290  3.59093051
   4.00813386  5.07266649  7.27188090
   1.40063528  7.86932203  8.20717515
   0.25645629  6.47050265  2.39395367
   1.92537356  6.47611591  5.93541869
   0.67965151  7.87408241  0.00000000
   7.45077502  5.06692290  1.19697684
   9.08640318  5.07038439  4.80218480
   7.02757980  3.66334314  3.59093051
   8.60209797  3.66258395  7.26324953
   6.04666389  6.61135827  8.39577538
   4.91160371  5.06692290  2.39395367
   6.53327169  5.08995347  6.10285855
   5.33479893  6.47050265  0.00000000
  12.10592244  3.66334314  1.19697684
  13.77139092  3.67498585  4.79573973
  11.68272722  2.25976338  3.59093051
  13.24134118  2.27119027  7.28155123
  10.69001285  5.06954030  8.23288665
   9.56675112  3.66334314  2.39395367
  11.22707052  3.68239297  5.93783021
   9.98994634  5.06692290  0.00000000
   2.79562761  9.27766217  1.19697684
   4.47849650  9.28806663  4.78597999
   2.37243239  7.87408241  3.59093051
   3.95250458  7.87257094  7.22325365
   1.38424565 10.68551513  8.20906735
   0.25645629  9.27766217  2.39395367
   1.91600678  9.28700606  5.93356638
   0.67965151 10.68124192  0.00000000
   7.45077502  7.87408241  1.19697684
   9.11444376  7.88228611  4.78931255
   7.02757980  6.47050265  3.59093051
   8.60792386  6.50449561  7.25526406
   6.06448780  9.36448081  8.20109792
   4.91160371  7.87408241  2.39395367
   6.56025311  7.86547471  5.98478983
   5.33479893  9.27766217  0.00000000
  12.10592244  6.47050265  1.19697684
  13.77086479  6.47815349  4.79860512
  11.68272722  5.06692290  3.59093051
  13.23198471  5.07693455  7.30480385
  10.71653294  7.88725856  8.24036661
   9.56675112  6.47050265  2.39395367
  11.22470943  6.48351576  5.94211024
   9.98994634  7.87408241  0.00000000
   6.28758232  3.65000893 10.18122822
   6.24806287  6.51874392 10.17453687
 


--------------------------------------------------------------------------------------------------------


 k-point  1 :   0.0000 0.0000 0.0000  plane waves:   62403
 k-point  2 :   0.0000 0.5000 0.0000  plane waves:   62516

 maximum and minimum number of plane-waves per node :     62516    62403

 maximum number of plane-waves:     62516
 maximum index in each direction: 
   IXMAX=   25   IYMAX=   19   IZMAX=   31
   IXMIN=  -25   IYMIN=  -19   IZMIN=  -31

 WARNING: aliasing errors must be expected set NGX to 102 to avoid them
 WARNING: aliasing errors must be expected set NGY to  78 to avoid them
 WARNING: aliasing errors must be expected set NGZ to 126 to avoid them
 aliasing errors are usually negligible using standard VASP settings
 and one can safely disregard these warnings

 serial   3D FFT for wavefunctions
 parallel 3D FFT for charge:
    minimum data exchange during FFTs selected (reduces bandwidth)


 total amount of memory used by VASP on root node   163211. kBytes
========================================================================

   base      :      30000. kBytes
   nonlr-proj:      45345. kBytes
   fftplans  :       7318. kBytes
   grid      :      27607. kBytes
   one-center:       1524. kBytes
   wavefun   :      51417. kBytes
 
     INWAV:  cpu time    0.0000: real time    0.0000
 Broyden mixing: mesh for mixing (old mesh)
   NGX = 51   NGY = 39   NGZ = 63
  (NGX  =160   NGY  =120   NGZ  =192)
  gives a total of 125307 points

 initial charge density was supplied:
 charge density of overlapping atoms calculated
 number of electron     972.0000000 magnetization 
 keeping initial charge density in first step


--------------------------------------------------------------------------------------------------------


 Maximum index for non-local projection operator         2691
 Maximum index for augmentation-charges          681 (set IRDMAX)


--------------------------------------------------------------------------------------------------------


 First call to EWALD:  gamma=   0.125
 Maximum number of real-space cells 3x 3x 2
 Maximum number of reciprocal cells 3x 2x 3

 FEWALD executed in parallel
    FEWALD:  cpu time    0.0060: real time    0.0056


----------------------------------------- Iteration    1(   1)  ---------------------------------------


    POTLOK:  cpu time    0.2530: real time    0.2529
    SETDIJ:  cpu time    0.0250: real time    0.0257
     EDDAV:  cpu time   38.5681: real time   38.5909
       DOS:  cpu time    0.0010: real time    0.0009
    --------------------------------------------
      LOOP:  cpu time   38.8511: real time   38.8768

 eigenvalue-minimisations  :  2400
 total energy-change (2. order) : 0.1020400E+05  (-0.3862025E+05)
 number of electron     972.0000000 magnetization 
 augmentation part      972.0000000 magnetization 

 Free energy of the ion-electron system (eV)
  ---------------------------------------------------
  alpha Z        PSCENC =      4726.33116163
  Ewald energy   TEWEN  =    110089.62612338
  -Hartree energ DENC   =   -187973.97364309
  -exchange      EXHF   =         0.00000000
  -V(xc)+E(xc)   XCENC  =       375.02774309
  PAW double counting   =     55523.56415730   -52812.05975202
  entropy T*S    EENTRO =         0.00018173
  eigenvalues    EBANDS =      9416.05566667
  atomic energy  EATOM  =     70859.42762808
  Solvation  Ediel_sol  =         0.00000000
  ---------------------------------------------------
  free energy    TOTEN  =     10203.99926677 eV

  energy without entropy =    10203.99908504  energy(sigma->0) =    10203.99920619


--------------------------------------------------------------------------------------------------------




----------------------------------------- Iteration    1(   2)  ---------------------------------------


     EDDAV:  cpu time   35.0647: real time   35.0688
       DOS:  cpu time    0.0010: real time    0.0009
    --------------------------------------------
      LOOP:  cpu time   35.0667: real time   35.0735

 eigenvalue-minimisations  :  2400
 total energy-change (2. order) :-0.9789076E+04  (-0.9153568E+04)
 number of electron     972.0000000 magnetization 
 augmentation part      972.0000000 magnetization 

 Free energy of the ion-electron system (eV)
  ---------------------------------------------------
  alpha Z        PSCENC =      4726.33116163
  Ewald energy   TEWEN  =    110089.62612338
  -Hartree energ DENC   =   -187973.97364309
  -exchange      EXHF   =         0.00000000
  -V(xc)+E(xc)   XCENC  =       375.02774309
  PAW double counting   =     55523.56415730   -52812.05975202
  entropy T*S    EENTRO =        -0.01146516
  eigenvalues    EBANDS =      -373.00865573
  atomic energy  EATOM  =     70859.42762808
  Solvation  Ediel_sol  =         0.00000000
  ---------------------------------------------------
  free energy    TOTEN  =       414.92329747 eV

  energy without entropy =      414.93476264  energy(sigma->0) =      414.92711919


--------------------------------------------------------------------------------------------------------




----------------------------------------- Iteration    1(   3)  ---------------------------------------


     EDDAV:  cpu time   43.9843: real time   43.9881
       DOS:  cpu time    0.0010: real time    0.0009
    --------------------------------------------
      LOOP:  cpu time   43.9863: real time   44.0043

 eigenvalue-minimisations  :  3072
 total energy-change (2. order) :-0.9408999E+03  (-0.8441348E+03)
 number of electron     972.0000000 magnetization 
 augmentation part      972.0000000 magnetization 

 Free energy of the ion-electron system (eV)
  ---------------------------------------------------
  alpha Z        PSCENC =      4726.33116163
  Ewald energy   TEWEN  =    110089.62612338
  -Hartree energ DENC   =   -187973.97364309
  -exchange      EXHF   =         0.00000000
  -V(xc)+E(xc)   XCENC  =       375.02774309
  PAW double counting   =     55523.56415730   -52812.05975202
  entropy T*S    EENTRO =         0.01251003
  eigenvalues    EBANDS =     -1313.93252456
  atomic energy  EATOM  =     70859.42762808
  Solvation  Ediel_sol  =         0.00000000
  ---------------------------------------------------
  free energy    TOTEN  =      -525.97659616 eV

  energy without entropy =     -525.98910619  energy(sigma->0) =     -525.98076617


--------------------------------------------------------------------------------------------------------




----------------------------------------- Iteration    1(   4)  ---------------------------------------


     EDDAV:  cpu time   44.8072: real time   44.8109
       DOS:  cpu time    0.0010: real time    0.0009
    --------------------------------------------
      LOOP:  cpu time   44.8082: real time   44.8254

 eigenvalue-minimisations  :  3192
 total energy-change (2. order) :-0.7050536E+02  (-0.6469556E+02)
 number of electron     972.0000000 magnetization 
 augmentation part      972.0000000 magnetization 

 Free energy of the ion-electron system (eV)
  ---------------------------------------------------
  alpha Z        PSCENC =      4726.33116163
  Ewald energy   TEWEN  =    110089.62612338
  -Hartree energ DENC   =   -187973.97364309
  -exchange      EXHF   =         0.00000000
  -V(xc)+E(xc)   XCENC  =       375.02774309
  PAW double counting   =     55523.56415730   -52812.05975202
  entropy T*S    EENTRO =         0.01398023
  eigenvalues    EBANDS =     -1384.43935667
  atomic energy  EATOM  =     70859.42762808
  Solvation  Ediel_sol  =         0.00000000
  ---------------------------------------------------
  free energy    TOTEN  =      -596.48195807 eV

  energy without entropy =     -596.49593830  energy(sigma->0) =     -596.48661815


--------------------------------------------------------------------------------------------------------




----------------------------------------- Iteration    1(   5)  ---------------------------------------


     EDDAV:  cpu time   43.5204: real time   43.5262
       DOS:  cpu time    0.0010: real time    0.0009
    CHARGE:  cpu time    1.5718: real time    1.5735
    MIXING:  cpu time    0.0120: real time    0.0120
    --------------------------------------------
      LOOP:  cpu time   45.1051: real time   45.1276

 eigenvalue-minimisations  :  3048
 total energy-change (2. order) :-0.1634192E+01  (-0.1616103E+01)
 number of electron     971.9999919 magnetization 
 augmentation part      282.2771390 magnetization 

 Broyden mixing:
  rms(total) = 0.40808E+01    rms(broyden)= 0.40804E+01
  rms(prec ) = 0.47535E+01
  weight for this iteration     100.00

 Free energy of the ion-electron system (eV)
  ---------------------------------------------------
  alpha Z        PSCENC =      4726.33116163
  Ewald energy   TEWEN  =    110089.62612338
  -Hartree energ DENC   =   -187973.97364309
  -exchange      EXHF   =         0.00000000
  -V(xc)+E(xc)   XCENC  =       375.02774309
  PAW double counting   =     55523.56415730   -52812.05975202
  entropy T*S    EENTRO =         0.01418465
  eigenvalues    EBANDS =     -1386.07375305
  atomic energy  EATOM  =     70859.42762808
  Solvation  Ediel_sol  =         0.00000000
  ---------------------------------------------------
  free energy    TOTEN  =      -598.11615003 eV

  energy without entropy =     -598.13033467  energy(sigma->0) =     -598.12087824


--------------------------------------------------------------------------------------------------------




----------------------------------------- Iteration    1(   6)  ---------------------------------------


    POTLOK:  cpu time    0.2340: real time    0.2340
    SETDIJ:  cpu time    0.0280: real time    0.0274
    EDDIAG:  cpu time    6.9649: real time    6.9654
  RMM-DIIS:  cpu time   15.7876: real time   15.7890
    ORTHCH:  cpu time    2.7596: real time    2.7600
       DOS:  cpu time    0.0010: real time    0.0013
    CHARGE:  cpu time    1.5798: real time    1.5796
    MIXING:  cpu time    0.0110: real time    0.0111
    --------------------------------------------
      LOOP:  cpu time   27.3668: real time   27.3810

 eigenvalue-minimisations  :  2417
 total energy-change (2. order) :-0.1464074E+02  (-0.1223860E+02)
 number of electron     971.9999934 magnetization 
 augmentation part      301.4703840 magnetization 

 Broyden mixing:
  rms(total) = 0.57004E+01    rms(broyden)= 0.56992E+01
  rms(prec ) = 0.95671E+01
  weight for this iteration     100.00

 eigenvalues of (default mixing * dielectric matrix)
  average eigenvalue GAMMA=   0.3981
  0.3981

 Free energy of the ion-electron system (eV)
  ---------------------------------------------------
  alpha Z        PSCENC =      4726.33116163
  Ewald energy   TEWEN  =    110089.62612338
  -Hartree energ DENC   =   -186828.70788627
  -exchange      EXHF   =         0.00000000
  -V(xc)+E(xc)   XCENC  =       353.35308715
  PAW double counting   =     55337.43161660   -52747.77748835
  entropy T*S    EENTRO =         0.00383030
  eigenvalues    EBANDS =     -2402.44496154
  atomic energy  EATOM  =     70859.42762808
  Solvation  Ediel_sol  =         0.00000000
  ---------------------------------------------------
  free energy    TOTEN  =      -612.75688902 eV

  energy without entropy =     -612.76071933  energy(sigma->0) =     -612.75816579


--------------------------------------------------------------------------------------------------------




----------------------------------------- Iteration    1(   7)  ---------------------------------------


    POTLOK:  cpu time    0.2360: real time    0.2353
    SETDIJ:  cpu time    0.0270: real time    0.0274
    EDDIAG:  cpu time    6.1181: real time    6.1180
  RMM-DIIS:  cpu time   13.3050: real time   13.3063
    ORTHCH:  cpu time    2.4366: real time    2.4371
       DOS:  cpu time    0.0010: real time    0.0011
    CHARGE:  cpu time    1.5498: real time    1.5498
    MIXING:  cpu time    0.0110: real time    0.0103
    --------------------------------------------
      LOOP:  cpu time   23.6864: real time   23.7022

 eigenvalue-minimisations  :  2434
 total energy-change (2. order) : 0.1282108E+02  (-0.5554082E+01)
 number of electron     971.9999921 magnetization 
 augmentation part      297.3539664 magnetization 

 Broyden mixing:
  rms(total) = 0.37660E+01    rms(broyden)= 0.37654E+01
  rms(prec ) = 0.80521E+01
  weight for this iteration     100.00

 eigenvalues of (default mixing * dielectric matrix)
  average eigenvalue GAMMA=   0.4357
  0.7017  0.1697

 Free energy of the ion-electron system (eV)
  ---------------------------------------------------
  alpha Z        PSCENC =      4726.33116163
  Ewald energy   TEWEN  =    110089.62612338
  -Hartree energ DENC   =   -187266.95874489
  -exchange      EXHF   =         0.00000000
  -V(xc)+E(xc)   XCENC  =       349.36014463
  PAW double counting   =     55529.52861629   -52951.31045373
  entropy T*S    EENTRO =        -0.03994322
  eigenvalues    EBANDS =     -1935.90034548
  atomic energy  EATOM  =     70859.42762808
  Solvation  Ediel_sol  =         0.00000000
  ---------------------------------------------------
  free energy    TOTEN  =      -599.93581331 eV

  energy without entropy =     -599.89587009  energy(sigma->0) =     -599.92249891


--------------------------------------------------------------------------------------------------------




----------------------------------------- Iteration    1(   8)  ---------------------------------------


    POTLOK:  cpu time    0.2070: real time    0.2074
    SETDIJ:  cpu time    0.0270: real time    0.0264
    EDDIAG:  cpu time    6.0631: real time    6.0634
  RMM-DIIS:  cpu time   13.8359: real time   13.8371
    ORTHCH:  cpu time    2.7786: real time    2.7789
       DOS:  cpu time    0.0010: real time    0.0013
    CHARGE:  cpu time    1.5628: real time    1.5632
    MIXING:  cpu time    0.0120: real time    0.0115
    --------------------------------------------
      LOOP:  cpu time   24.4893: real time   24.5027

 eigenvalue-minimisations  :  2562
 total energy-change (2. order) : 0.5187130E+01  (-0.2750026E+01)
 number of electron     971.9999903 magnetization 
 augmentation part      297.2649224 magnetization 

 Broyden mixing:
  rms(total) = 0.39779E+01    rms(broyden)= 0.39775E+01
  rms(prec ) = 0.69429E+01
  weight for this iteration     100.00

 eigenvalues of (default mixing * dielectric matrix)
  average eigenvalue GAMMA=   0.4758
  1.1028  0.1965  0.1281

 Free energy of the ion-electron system (eV)
  ---------------------------------------------------
  alpha Z        PSCENC =      4726.33116163
  Ewald energy   TEWEN  =    110089.62612338
  -Hartree energ DENC   =   -187345.93129309
  -exchange      EXHF   =         0.00000000
  -V(xc)+E(xc)   XCENC  =       346.60124909
  PAW double counting   =     55695.77024145   -53133.71098476
  entropy T*S    EENTRO =        -0.03269525
  eigenvalues    EBANDS =     -1832.83011403
  atomic energy  EATOM  =     70859.42762808
  Solvation  Ediel_sol  =         0.00000000
  ---------------------------------------------------
  free energy    TOTEN  =      -594.74868349 eV

  energy without entropy =     -594.71598825  energy(sigma->0) =     -594.73778508


--------------------------------------------------------------------------------------------------------




----------------------------------------- Iteration    1(   9)  ---------------------------------------


    POTLOK:  cpu time    0.2350: real time    0.2364
    SETDIJ:  cpu time    0.0280: real time    0.0271
    EDDIAG:  cpu time    6.9269: real time    6.9479
  RMM-DIIS:  cpu time   15.5826: real time   15.5855
    ORTHCH:  cpu time    2.7736: real time    2.7741
       DOS:  cpu time    0.0010: real time    0.0016
    CHARGE:  cpu time    1.4828: real time    1.4823
    MIXING:  cpu time    0.0120: real time    0.0124
    --------------------------------------------
      LOOP:  cpu time   27.0429: real time   27.0807

 eigenvalue-minimisations  :  2414
 total energy-change (2. order) : 0.3089837E+02  (-0.1587999E+01)
 number of electron     971.9999911 magnetization 
 augmentation part      301.0989073 magnetization 

 Broyden mixing:
  rms(total) = 0.21572E+01    rms(broyden)= 0.21571E+01
  rms(prec ) = 0.33666E+01
  weight for this iteration     100.00

 eigenvalues of (default mixing * dielectric matrix)
  average eigenvalue GAMMA=   0.4614
  1.2174  0.2547  0.2547  0.1187

 Free energy of the ion-electron system (eV)
  ---------------------------------------------------
  alpha Z        PSCENC =      4726.33116163
  Ewald energy   TEWEN  =    110089.62612338
  -Hartree energ DENC   =   -187087.26312037
  -exchange      EXHF   =         0.00000000
  -V(xc)+E(xc)   XCENC  =       343.23835748
  PAW double counting   =     56018.73905156   -53490.88368976
  entropy T*S    EENTRO =         0.02769533
  eigenvalues    EBANDS =     -2023.09352528
  atomic energy  EATOM  =     70859.42762808
  Solvation  Ediel_sol  =         0.00000000
  ---------------------------------------------------
  free energy    TOTEN  =      -563.85031795 eV

  energy without entropy =     -563.87801328  energy(sigma->0) =     -563.85954972


--------------------------------------------------------------------------------------------------------




----------------------------------------- Iteration    1(  10)  ---------------------------------------


    POTLOK:  cpu time    0.2330: real time    0.2332
    SETDIJ:  cpu time    0.0260: real time    0.0255
    EDDIAG:  cpu time    6.9049: real time    6.9058
  RMM-DIIS:  cpu time   13.7439: real time   13.7452
    ORTHCH:  cpu time    2.3586: real time    2.3587
       DOS:  cpu time    0.0020: real time    0.0015
    CHARGE:  cpu time    1.3858: real time    1.3862
    MIXING:  cpu time    0.0120: real time    0.0116
    --------------------------------------------
      LOOP:  cpu time   24.6672: real time   24.6820

 eigenvalue-minimisations  :  2425
 total energy-change (2. order) : 0.4415141E+01  (-0.4769468E+00)
 number of electron     971.9999922 magnetization 
 augmentation part      301.8348595 magnetization 

 Broyden mixing:
  rms(total) = 0.16526E+01    rms(broyden)= 0.16524E+01
  rms(prec ) = 0.26207E+01
  weight for this iteration     100.00

 eigenvalues of (default mixing * dielectric matrix)
  average eigenvalue GAMMA=   0.4345
  1.2779  0.3049  0.3049  0.1207  0.1642

 Free energy of the ion-electron system (eV)
  ---------------------------------------------------
  alpha Z        PSCENC =      4726.33116163
  Ewald energy   TEWEN  =    110089.62612338
  -Hartree energ DENC   =   -187050.92301937
  -exchange      EXHF   =         0.00000000
  -V(xc)+E(xc)   XCENC  =       342.84360752
  PAW double counting   =     56187.23320880   -53668.88456509
  entropy T*S    EENTRO =        -0.02536828
  eigenvalues    EBANDS =     -2045.06395373
  atomic energy  EATOM  =     70859.42762808
  Solvation  Ediel_sol  =         0.00000000
  ---------------------------------------------------
  free energy    TOTEN  =      -559.43517705 eV

  energy without entropy =     -559.40980877  energy(sigma->0) =     -559.42672096


--------------------------------------------------------------------------------------------------------




----------------------------------------- Iteration    1(  11)  ---------------------------------------


    POTLOK:  cpu time    0.2190: real time    0.2191
    SETDIJ:  cpu time    0.0250: real time    0.0250
    EDDIAG:  cpu time    6.3020: real time    6.3027
  RMM-DIIS:  cpu time   13.7939: real time   13.7957
    ORTHCH:  cpu time    2.4306: real time    2.4317
       DOS:  cpu time    0.0010: real time    0.0009
    CHARGE:  cpu time    1.2218: real time    1.2221
    MIXING:  cpu time    0.0120: real time    0.0128
    --------------------------------------------
      LOOP:  cpu time   24.0084: real time   24.0229

 eigenvalue-minimisations  :  2542
 total energy-change (2. order) : 0.1881077E+01  (-0.1862489E+00)
 number of electron     971.9999908 magnetization 
 augmentation part      301.9377468 magnetization 

 Broyden mixing:
  rms(total) = 0.12354E+01    rms(broyden)= 0.12352E+01
  rms(prec ) = 0.21102E+01
  weight for this iteration     100.00

 eigenvalues of (default mixing * dielectric matrix)
  average eigenvalue GAMMA=   0.4120
  1.3067  0.3758  0.3758  0.1869  0.1251  0.1019

 Free energy of the ion-electron system (eV)
  ---------------------------------------------------
  alpha Z        PSCENC =      4726.33116163
  Ewald energy   TEWEN  =    110089.62612338
  -Hartree energ DENC   =   -187045.92278058
  -exchange      EXHF   =         0.00000000
  -V(xc)+E(xc)   XCENC  =       342.99645713
  PAW double counting   =     56306.69041277   -53793.57400150
  entropy T*S    EENTRO =        -0.01498497
  eigenvalues    EBANDS =     -2043.11411555
  atomic energy  EATOM  =     70859.42762808
  Solvation  Ediel_sol  =         0.00000000
  ---------------------------------------------------
  free energy    TOTEN  =      -557.55409961 eV

  energy without entropy =     -557.53911464  energy(sigma->0) =     -557.54910462


--------------------------------------------------------------------------------------------------------




----------------------------------------- Iteration    1(  12)  ---------------------------------------


    POTLOK:  cpu time    0.2250: real time    0.2258
    SETDIJ:  cpu time    0.0230: real time    0.0237
    EDDIAG:  cpu time    6.2241: real time    6.2248
  RMM-DIIS:  cpu time   16.2115: real time   16.2155
    ORTHCH:  cpu time    2.7656: real time    2.7657
       DOS:  cpu time    0.0010: real time    0.0013
    CHARGE:  cpu time    1.5578: real time    1.5571
    MIXING:  cpu time    0.0160: real time    0.0160
    --------------------------------------------
      LOOP:  cpu time   27.0269: real time   27.0447

 eigenvalue-minimisations  :  2485
 total energy-change (2. order) : 0.1419011E+01  (-0.6941890E-01)
 number of electron     971.9999918 magnetization 
 augmentation part      302.1763978 magnetization 

 Broyden mixing:
  rms(total) = 0.73959E+00    rms(broyden)= 0.73930E+00
  rms(prec ) = 0.11613E+01
  weight for this iteration     100.00

 eigenvalues of (default mixing * dielectric matrix)
  average eigenvalue GAMMA=   0.4087
  1.3220  0.5780  0.3801  0.1825  0.1825  0.1147  0.1010

 Free energy of the ion-electron system (eV)
  ---------------------------------------------------
  alpha Z        PSCENC =      4726.33116163
  Ewald energy   TEWEN  =    110089.62612338
  -Hartree energ DENC   =   -187045.15485994
  -exchange      EXHF   =         0.00000000
  -V(xc)+E(xc)   XCENC  =       343.12345871
  PAW double counting   =     56415.75341868   -53906.46224534
  entropy T*S    EENTRO =        -0.06627335
  eigenvalues    EBANDS =     -2038.71349998
  atomic energy  EATOM  =     70859.42762808
  Solvation  Ediel_sol  =         0.00000000
  ---------------------------------------------------
  free energy    TOTEN  =      -556.13508814 eV

  energy without entropy =     -556.06881479  energy(sigma->0) =     -556.11299702


--------------------------------------------------------------------------------------------------------




----------------------------------------- Iteration    1(  13)  ---------------------------------------


    POTLOK:  cpu time    0.2380: real time    0.2375
    SETDIJ:  cpu time    0.0270: real time    0.0271
    EDDIAG:  cpu time    6.9159: real time    6.9176
  RMM-DIIS:  cpu time   14.9187: real time   14.9204
    ORTHCH:  cpu time    2.2717: real time    2.2711
       DOS:  cpu time    0.0010: real time    0.0011
    CHARGE:  cpu time    1.2398: real time    1.2406
    MIXING:  cpu time    0.0100: real time    0.0091
    --------------------------------------------
      LOOP:  cpu time   25.6231: real time   25.6393

 eigenvalue-minimisations  :  2424
 total energy-change (2. order) : 0.6790552E+00  (-0.4449064E-01)
 number of electron     971.9999917 magnetization 
 augmentation part      302.0850026 magnetization 

 Broyden mixing:
  rms(total) = 0.38496E+00    rms(broyden)= 0.38490E+00
  rms(prec ) = 0.52838E+00
  weight for this iteration     100.00

 eigenvalues of (default mixing * dielectric matrix)
  average eigenvalue GAMMA=   0.4616
  1.4039  0.6974  0.6974  0.2725  0.2357  0.1710  0.1181  0.0963

 Free energy of the ion-electron system (eV)
  ---------------------------------------------------
  alpha Z        PSCENC =      4726.33116163
  Ewald energy   TEWEN  =    110089.62612338
  -Hartree energ DENC   =   -187044.96758500
  -exchange      EXHF   =         0.00000000
  -V(xc)+E(xc)   XCENC  =       343.24107490
  PAW double counting   =     56563.01675061   -54057.87993322
  entropy T*S    EENTRO =        -0.05527145
  eigenvalues    EBANDS =     -2034.19598184
  atomic energy  EATOM  =     70859.42762808
  Solvation  Ediel_sol  =         0.00000000
  ---------------------------------------------------
  free energy    TOTEN  =      -555.45603291 eV

  energy without entropy =     -555.40076146  energy(sigma->0) =     -555.43760910


--------------------------------------------------------------------------------------------------------




----------------------------------------- Iteration    1(  14)  ---------------------------------------


    POTLOK:  cpu time    0.1960: real time    0.1953
    SETDIJ:  cpu time    0.0240: real time    0.0249
    EDDIAG:  cpu time    6.0501: real time    6.0511
  RMM-DIIS:  cpu time   13.7729: real time   13.7741
    ORTHCH:  cpu time    2.4546: real time    2.4544
       DOS:  cpu time    0.0010: real time    0.0017
    CHARGE:  cpu time    1.3988: real time    1.3986
    MIXING:  cpu time    0.0080: real time    0.0076
    --------------------------------------------
      LOOP:  cpu time   23.9064: real time   23.9207

 eigenvalue-minimisations  :  2535
 total energy-change (2. order) :-0.4024810E-01  (-0.2614538E-01)
 number of electron     971.9999922 magnetization 
 augmentation part      302.1020854 magnetization 

 Broyden mixing:
  rms(total) = 0.49682E+00    rms(broyden)= 0.49672E+00
  rms(prec ) = 0.81571E+00
  weight for this iteration     100.00

 eigenvalues of (default mixing * dielectric matrix)
  average eigenvalue GAMMA=   0.4775
  1.5287  0.8299  0.8299  0.3268  0.2127  0.2127  0.1432  0.1175  0.0965

 Free energy of the ion-electron system (eV)
  ---------------------------------------------------
  alpha Z        PSCENC =      4726.33116163
  Ewald energy   TEWEN  =    110089.62612338
  -Hartree energ DENC   =   -187041.01474745
  -exchange      EXHF   =         0.00000000
  -V(xc)+E(xc)   XCENC  =       343.29197733
  PAW double counting   =     56731.37349692   -54231.38105127
  entropy T*S    EENTRO =        -0.06605080
  eigenvalues    EBANDS =     -2033.08481883
  atomic energy  EATOM  =     70859.42762808
  Solvation  Ediel_sol  =         0.00000000
  ---------------------------------------------------
  free energy    TOTEN  =      -555.49628102 eV

  energy without entropy =     -555.43023022  energy(sigma->0) =     -555.47426408


--------------------------------------------------------------------------------------------------------




----------------------------------------- Iteration    1(  15)  ---------------------------------------


    POTLOK:  cpu time    0.1950: real time    0.1947
    SETDIJ:  cpu time    0.0240: real time    0.0239
    EDDIAG:  cpu time    6.2301: real time    6.2302
  RMM-DIIS:  cpu time   15.5096: real time   15.5115
    ORTHCH:  cpu time    2.7626: real time    2.7629
       DOS:  cpu time    0.0020: real time    0.0017
    CHARGE:  cpu time    1.5458: real time    1.5461
    MIXING:  cpu time    0.0160: real time    0.0161
    --------------------------------------------
      LOOP:  cpu time   26.2860: real time   26.3000

 eigenvalue-minimisations  :  2493
 total energy-change (2. order) : 0.9898985E-01  (-0.1183653E-01)
 number of electron     971.9999917 magnetization 
 augmentation part      302.1255858 magnetization 

 Broyden mixing:
  rms(total) = 0.41824E+00    rms(broyden)= 0.41821E+00
  rms(prec ) = 0.67599E+00
  weight for this iteration     100.00

 eigenvalues of (default mixing * dielectric matrix)
  average eigenvalue GAMMA=   0.5288
  1.9875  0.9556  0.9556  0.4344  0.2410  0.2410  0.1591  0.1178  0.0956  0.1003

 Free energy of the ion-electron system (eV)
  ---------------------------------------------------
  alpha Z        PSCENC =      4726.33116163
  Ewald energy   TEWEN  =    110089.62612338
  -Hartree energ DENC   =   -187040.29884116
  -exchange      EXHF   =         0.00000000
  -V(xc)+E(xc)   XCENC  =       343.26078860
  PAW double counting   =     56825.81774002   -54328.77884249
  entropy T*S    EENTRO =        -0.06110465
  eigenvalues    EBANDS =     -2030.72194457
  atomic energy  EATOM  =     70859.42762808
  Solvation  Ediel_sol  =         0.00000000
  ---------------------------------------------------
  free energy    TOTEN  =      -555.39729117 eV

  energy without entropy =     -555.33618652  energy(sigma->0) =     -555.37692295


--------------------------------------------------------------------------------------------------------




----------------------------------------- Iteration    1(  16)  ---------------------------------------


    POTLOK:  cpu time    0.2410: real time    0.2406
    SETDIJ:  cpu time    0.0270: real time    0.0278
    EDDIAG:  cpu time    6.9179: real time    6.9179
  RMM-DIIS:  cpu time   15.4357: real time   15.4372
    ORTHCH:  cpu time    2.4516: real time    2.4521
       DOS:  cpu time    0.0010: real time    0.0009
    CHARGE:  cpu time    1.2448: real time    1.2451
    MIXING:  cpu time    0.0130: real time    0.0127
    --------------------------------------------
      LOOP:  cpu time   26.3330: real time   26.3491

 eigenvalue-minimisations  :  2417
 total energy-change (2. order) : 0.9911557E-01  (-0.1762539E-01)
 number of electron     971.9999920 magnetization 
 augmentation part      302.0807901 magnetization 

 Broyden mixing:
  rms(total) = 0.28248E+00    rms(broyden)= 0.28242E+00
  rms(prec ) = 0.41792E+00
  weight for this iteration     100.00

 eigenvalues of (default mixing * dielectric matrix)
  average eigenvalue GAMMA=   0.5544
  2.2604  1.0514  1.0514  0.5325  0.2908  0.2224  0.2224  0.1607  0.1178  0.0966
  0.0919

 Free energy of the ion-electron system (eV)
  ---------------------------------------------------
  alpha Z        PSCENC =      4726.33116163
  Ewald energy   TEWEN  =    110089.62612338
  -Hartree energ DENC   =   -187040.02447594
  -exchange      EXHF   =         0.00000000
  -V(xc)+E(xc)   XCENC  =       343.14294247
  PAW double counting   =     56982.03501420   -54489.88756427
  entropy T*S    EENTRO =        -0.08096371
  eigenvalues    EBANDS =     -2025.86804142
  atomic energy  EATOM  =     70859.42762808
  Solvation  Ediel_sol  =         0.00000000
  ---------------------------------------------------
  free energy    TOTEN  =      -555.29817560 eV

  energy without entropy =     -555.21721189  energy(sigma->0) =     -555.27118770


--------------------------------------------------------------------------------------------------------




----------------------------------------- Iteration    1(  17)  ---------------------------------------


    POTLOK:  cpu time    0.1890: real time    0.1902
    SETDIJ:  cpu time    0.0230: real time    0.0229
    EDDIAG:  cpu time    5.9961: real time    5.9962
  RMM-DIIS:  cpu time   13.0090: real time   13.0101
    ORTHCH:  cpu time    2.4596: real time    2.4604
       DOS:  cpu time    0.0000: real time    0.0009
    CHARGE:  cpu time    1.4528: real time    1.4521
    MIXING:  cpu time    0.0140: real time    0.0142
    --------------------------------------------
      LOOP:  cpu time   23.1455: real time   23.1613

 eigenvalue-minimisations  :  2415
 total energy-change (2. order) : 0.2489087E-01  (-0.1211318E-01)
 number of electron     971.9999921 magnetization 
 augmentation part      302.0451829 magnetization 

 Broyden mixing:
  rms(total) = 0.25333E+00    rms(broyden)= 0.25313E+00
  rms(prec ) = 0.35126E+00
  weight for this iteration     100.00

 eigenvalues of (default mixing * dielectric matrix)
  average eigenvalue GAMMA=   0.5482
  2.2034  1.1677  1.1677  0.5645  0.3705  0.2347  0.2347  0.1734  0.1562  0.1178
  0.0966  0.0918

 Free energy of the ion-electron system (eV)
  ---------------------------------------------------
  alpha Z        PSCENC =      4726.33116163
  Ewald energy   TEWEN  =    110089.62612338
  -Hartree energ DENC   =   -187042.51881099
  -exchange      EXHF   =         0.00000000
  -V(xc)+E(xc)   XCENC  =       343.02189817
  PAW double counting   =     57073.46585651   -54584.13894245
  entropy T*S    EENTRO =        -0.06309695
  eigenvalues    EBANDS =     -2020.42510211
  atomic energy  EATOM  =     70859.42762808
  Solvation  Ediel_sol  =         0.00000000
  ---------------------------------------------------
  free energy    TOTEN  =      -555.27328473 eV

  energy without entropy =     -555.21018778  energy(sigma->0) =     -555.25225241


--------------------------------------------------------------------------------------------------------




----------------------------------------- Iteration    1(  18)  ---------------------------------------


    POTLOK:  cpu time    0.2200: real time    0.2195
    SETDIJ:  cpu time    0.0250: real time    0.0256
    EDDIAG:  cpu time    6.0671: real time    6.0667
  RMM-DIIS:  cpu time   14.4308: real time   14.4323
    ORTHCH:  cpu time    2.7636: real time    2.7652
       DOS:  cpu time    0.0020: real time    0.0018
    CHARGE:  cpu time    1.5498: real time    1.5502
    MIXING:  cpu time    0.0180: real time    0.0179
    --------------------------------------------
      LOOP:  cpu time   25.0772: real time   25.0928

 eigenvalue-minimisations  :  2414
 total energy-change (2. order) : 0.5064672E-01  (-0.5667961E-02)
 number of electron     971.9999918 magnetization 
 augmentation part      302.0616603 magnetization 

 Broyden mixing:
  rms(total) = 0.16246E+00    rms(broyden)= 0.16223E+00
  rms(prec ) = 0.22772E+00
  weight for this iteration     100.00

 eigenvalues of (default mixing * dielectric matrix)
  average eigenvalue GAMMA=   0.5363
  2.2977  1.1471  1.1471  0.6283  0.4092  0.2448  0.2448  0.2361  0.1617  0.1494
  0.1178  0.0966  0.0917

 Free energy of the ion-electron system (eV)
  ---------------------------------------------------
  alpha Z        PSCENC =      4726.33116163
  Ewald energy   TEWEN  =    110089.62612338
  -Hartree energ DENC   =   -187045.13445242
  -exchange      EXHF   =         0.00000000
  -V(xc)+E(xc)   XCENC  =       342.99727142
  PAW double counting   =     57094.89832990   -54606.10213577
  entropy T*S    EENTRO =        -0.06850153
  eigenvalues    EBANDS =     -2017.19806271
  atomic energy  EATOM  =     70859.42762808
  Solvation  Ediel_sol  =         0.00000000
  ---------------------------------------------------
  free energy    TOTEN  =      -555.22263801 eV

  energy without entropy =     -555.15413648  energy(sigma->0) =     -555.19980417


--------------------------------------------------------------------------------------------------------




----------------------------------------- Iteration    1(  19)  ---------------------------------------


    POTLOK:  cpu time    0.2380: real time    0.2381
    SETDIJ:  cpu time    0.0250: real time    0.0253
    EDDIAG:  cpu time    6.9299: real time    6.9317
  RMM-DIIS:  cpu time   15.5656: real time   15.5668
    ORTHCH:  cpu time    2.7026: real time    2.7032
       DOS:  cpu time    0.0010: real time    0.0010
    CHARGE:  cpu time    1.2308: real time    1.2305
    MIXING:  cpu time    0.0130: real time    0.0134
    --------------------------------------------
      LOOP:  cpu time   26.7059: real time   26.7245

 eigenvalue-minimisations  :  2417
 total energy-change (2. order) : 0.2087341E-01  (-0.1679672E-02)
 number of electron     971.9999920 magnetization 
 augmentation part      302.0634565 magnetization 

 Broyden mixing:
  rms(total) = 0.10090E+00    rms(broyden)= 0.10070E+00
  rms(prec ) = 0.13460E+00
  weight for this iteration     100.00

 eigenvalues of (default mixing * dielectric matrix)
  average eigenvalue GAMMA=   0.5295
  2.4425  0.9847  0.9556  0.9556  0.4596  0.3563  0.2377  0.2377  0.1841  0.1587
  0.1178  0.1351  0.0966  0.0917

 Free energy of the ion-electron system (eV)
  ---------------------------------------------------
  alpha Z        PSCENC =      4726.33116163
  Ewald energy   TEWEN  =    110089.62612338
  -Hartree energ DENC   =   -187046.00857679
  -exchange      EXHF   =         0.00000000
  -V(xc)+E(xc)   XCENC  =       343.01985369
  PAW double counting   =     57118.85135316   -54630.50968821
  entropy T*S    EENTRO =        -0.07181099
  eigenvalues    EBANDS =     -2015.86780854
  atomic energy  EATOM  =     70859.42762808
  Solvation  Ediel_sol  =         0.00000000
  ---------------------------------------------------
  free energy    TOTEN  =      -555.20176460 eV

  energy without entropy =     -555.12995361  energy(sigma->0) =     -555.17782761


--------------------------------------------------------------------------------------------------------




----------------------------------------- Iteration    1(  20)  ---------------------------------------


    POTLOK:  cpu time    0.1980: real time    0.1984
    SETDIJ:  cpu time    0.0240: real time    0.0238
    EDDIAG:  cpu time    5.7341: real time    5.7483
  RMM-DIIS:  cpu time   13.3380: real time   13.3398
    ORTHCH:  cpu time    2.4396: real time    2.4404
       DOS:  cpu time    0.0010: real time    0.0012
    CHARGE:  cpu time    1.4528: real time    1.4524
    MIXING:  cpu time    0.0130: real time    0.0135
    --------------------------------------------
      LOOP:  cpu time   23.2025: real time   23.2314

 eigenvalue-minimisations  :  2415
 total energy-change (2. order) : 0.6187484E-02  (-0.9489960E-03)
 number of electron     971.9999919 magnetization 
 augmentation part      302.0568612 magnetization 

 Broyden mixing:
  rms(total) = 0.57549E-01    rms(broyden)= 0.57432E-01
  rms(prec ) = 0.78853E-01
  weight for this iteration     100.00

 eigenvalues of (default mixing * dielectric matrix)
  average eigenvalue GAMMA=   0.5340
  2.4793  1.1463  0.9497  0.9497  0.6135  0.3789  0.2526  0.2382  0.2382  0.1710
  0.1577  0.1178  0.0966  0.0917  0.1289

 Free energy of the ion-electron system (eV)
  ---------------------------------------------------
  alpha Z        PSCENC =      4726.33116163
  Ewald energy   TEWEN  =    110089.62612338
  -Hartree energ DENC   =   -187046.83019800
  -exchange      EXHF   =         0.00000000
  -V(xc)+E(xc)   XCENC  =       343.04554839
  PAW double counting   =     57142.13463431   -54654.21233401
  entropy T*S    EENTRO =        -0.07237152
  eigenvalues    EBANDS =     -2014.64576937
  atomic energy  EATOM  =     70859.42762808
  Solvation  Ediel_sol  =         0.00000000
  ---------------------------------------------------
  free energy    TOTEN  =      -555.19557712 eV

  energy without entropy =     -555.12320560  energy(sigma->0) =     -555.17145328


--------------------------------------------------------------------------------------------------------




----------------------------------------- Iteration    1(  21)  ---------------------------------------


    POTLOK:  cpu time    0.1650: real time    0.1671
    SETDIJ:  cpu time    0.0210: real time    0.0207
    EDDIAG:  cpu time    6.1141: real time    6.1149
  RMM-DIIS:  cpu time   14.3958: real time   14.3972
    ORTHCH:  cpu time    2.7556: real time    2.7549
       DOS:  cpu time    0.0010: real time    0.0012
    CHARGE:  cpu time    1.5518: real time    1.5519
    MIXING:  cpu time    0.0210: real time    0.0208
    --------------------------------------------
      LOOP:  cpu time   25.0262: real time   25.0428

 eigenvalue-minimisations  :  2435
 total energy-change (2. order) : 0.1211856E-02  (-0.3386569E-03)
 number of electron     971.9999920 magnetization 
 augmentation part      302.0602589 magnetization 

 Broyden mixing:
  rms(total) = 0.34389E-01    rms(broyden)= 0.34350E-01
  rms(prec ) = 0.48935E-01
  weight for this iteration     100.00

 eigenvalues of (default mixing * dielectric matrix)
  average eigenvalue GAMMA=   0.5599
  2.4974  1.3235  1.0812  1.0812  0.7874  0.4212  0.3359  0.2385  0.2385  0.2053
  0.1618  0.1560  0.1178  0.0917  0.0966  0.1254

 Free energy of the ion-electron system (eV)
  ---------------------------------------------------
  alpha Z        PSCENC =      4726.33116163
  Ewald energy   TEWEN  =    110089.62612338
  -Hartree energ DENC   =   -187047.97132908
  -exchange      EXHF   =         0.00000000
  -V(xc)+E(xc)   XCENC  =       343.06296240
  PAW double counting   =     57150.40804448   -54662.52782971
  entropy T*S    EENTRO =        -0.07148965
  eigenvalues    EBANDS =     -2013.47963678
  atomic energy  EATOM  =     70859.42762808
  Solvation  Ediel_sol  =         0.00000000
  ---------------------------------------------------
  free energy    TOTEN  =      -555.19436526 eV

  energy without entropy =     -555.12287561  energy(sigma->0) =     -555.17053538


--------------------------------------------------------------------------------------------------------




[...]
      6.064488  9.364481  8.201098            0           0           0  
      4.911604  7.874082  2.393954            0           0           0  
      6.560253  7.865475  5.984790            0           0           0  
      5.334799  9.277662  0.000000            0           0           0  
     12.105922  6.470503  1.196977            0           0           0  
     13.770865  6.478153  4.798605            0           0           0  
     11.682727  5.066923  3.590931            0           0           0  
     13.231985  5.076935  7.304804            0           0           0  
     10.716533  7.887259  8.240367            0           0           0  
      9.566751  6.470503  2.393954            0           0           0  
     11.224709  6.483516  5.942110            0           0           0  
      9.989946  7.874082  0.000000            0           0           0  
      6.287582  3.650009 10.181228    -0.820267   -0.155542    0.125426  
      6.248063  6.518744 10.174537     0.517316   -0.123523   -0.066050  
 
   5 f  =    2.323732 THz    14.600439 2PiTHz   77.511357 cm-1     9.610187 meV
             X         Y         Z           dx          dy          dz
      2.795628  0.856184  1.196977            0           0           0  
      4.478441  0.863747  4.788175            0           0           0  
      2.372432 -0.547396  3.590931            0           0           0  
      3.910218 -0.549612  7.264875            0           0           0  
      1.404514  2.261803  8.208006            0           0           0  
      0.256456  0.856184  2.393954            0           0           0  
      1.927561  0.875791  5.927305            0           0           0  
      0.679652  2.259763  0.000000            0           0           0  
      7.450775 -0.547396  1.196977            0           0           0  
      9.138224 -0.541152  4.785673            0           0           0  
      7.027580 -1.950976  3.590931            0           0           0  
      8.619372 -1.930270  7.279201            0           0           0  
      6.056298  0.771156  8.201239            0           0           0  
      4.911604 -0.547396  2.393954            0           0           0  
      6.605588 -0.531448  5.889257            0           0           0  
      5.334799  0.856184  0.000000            0           0           0  
     12.105922 -1.950976  1.196977            0           0           0  
     13.774063 -1.950403  4.794338            0           0           0  
     11.682727 -3.354556  3.590931            0           0           0  
     13.241175 -3.348564  7.292553            0           0           0  
     10.727219 -0.534021  8.232560            0           0           0  
      9.566751 -1.950976  2.393954            0           0           0  
     11.241264 -1.935348  5.941606            0           0           0  
      9.989946 -0.547396  0.000000            0           0           0  
      2.795628  3.663343  1.196977            0           0           0  
      4.485531  3.674737  4.787554            0           0           0  
      2.372432  2.259763  3.590931            0           0           0  
      3.954996  2.274535  7.230936            0           0           0  
      1.422011  5.069262  8.215441            0           0           0  
      0.256456  3.663343  2.393954            0           0           0  
      1.927070  3.681343  5.934067            0           0           0  
      0.679652  5.066923  0.000000            0           0           0  
      7.450775  2.259763  1.196977            0           0           0  
      9.113949  2.266171  4.788244            0           0           0  
      7.027580  0.856184  3.590931            0           0           0  
      8.609463  0.856289  7.260805            0           0           0  
      6.052443  3.508248  8.409661            0           0           0  
      4.911604  2.259763  2.393954            0           0           0  
      6.562591  2.310861  5.988205            0           0           0  
      5.334799  3.663343  0.000000            0           0           0  
     12.105922  0.856184  1.196977            0           0           0  
     13.780951  0.863682  4.789406            0           0           0  
     11.682727 -0.547396  3.590931            0           0           0  
     13.254625 -0.533300  7.276247            0           0           0  
     10.708910  2.262355  8.231048            0           0           0  
      9.566751  0.856184  2.393954            0           0           0  
     11.242057  0.875240  5.936386            0           0           0  
      9.989946  2.259763  0.000000            0           0           0  
      2.795628  6.470503  1.196977            0           0           0  
      4.488009  6.466116  4.788091            0           0           0  
      2.372432  5.066923  3.590931            0           0           0  
      4.008134  5.072666  7.271881            0           0           0  
      1.400635  7.869322  8.207175            0           0           0  
      0.256456  6.470503  2.393954            0           0           0  
      1.925374  6.476116  5.935419            0           0           0  
      0.679652  7.874082  0.000000            0           0           0  
      7.450775  5.066923  1.196977            0           0           0  
      9.086403  5.070384  4.802185            0           0           0  
      7.027580  3.663343  3.590931            0           0           0  
      8.602098  3.662584  7.263250            0           0           0  
      6.046664  6.611358  8.395775            0           0           0  
      4.911604  5.066923  2.393954            0           0           0  
      6.533272  5.089953  6.102859            0           0           0  
      5.334799  6.470503  0.000000            0           0           0  
     12.105922  3.663343  1.196977            0           0           0  
     13.771391  3.674986  4.795740            0           0           0  
     11.682727  2.259763  3.590931            0           0           0  
     13.241341  2.271190  7.281551            0           0           0  
     10.690013  5.069540  8.232887            0           0           0  
      9.566751  3.663343  2.393954            0           0           0  
     11.227071  3.682393  5.937830            0           0           0  
      9.989946  5.066923  0.000000            0           0           0  
      2.795628  9.277662  1.196977            0           0           0  
      4.478496  9.288067  4.785980            0           0           0  
      2.372432  7.874082  3.590931            0           0           0  
      3.952505  7.872571  7.223254            0           0           0  
      1.384246 10.685515  8.209067            0           0           0  
      0.256456  9.277662  2.393954            0           0           0  
      1.916007  9.287006  5.933566            0           0           0  
      0.679652 10.681242  0.000000            0           0           0  
      7.450775  7.874082  1.196977            0           0           0  
      9.114444  7.882286  4.789313            0           0           0  
      7.027580  6.470503  3.590931            0           0           0  
      8.607924  6.504496  7.255264            0           0           0  
      6.064488  9.364481  8.201098            0           0           0  
      4.911604  7.874082  2.393954            0           0           0  
      6.560253  7.865475  5.984790            0           0           0  
      5.334799  9.277662  0.000000            0           0           0  
     12.105922  6.470503  1.196977            0           0           0  
     13.770865  6.478153  4.798605            0           0           0  
     11.682727  5.066923  3.590931            0           0           0  
     13.231985  5.076935  7.304804            0           0           0  
     10.716533  7.887259  8.240367            0           0           0  
      9.566751  6.470503  2.393954            0           0           0  
     11.224709  6.483516  5.942110            0           0           0  
      9.989946  7.874082  0.000000            0           0           0  
      6.287582  3.650009 10.181228    -0.533634    0.089054    0.067780  
      6.248063  6.518744 10.174537    -0.832118   -0.035408    0.095055  
 
   6 f/i=    2.049267 THz    12.875925 2PiTHz   68.356193 cm-1     8.475091 meV
             X         Y         Z           dx          dy          dz
      2.795628  0.856184  1.196977            0           0           0  
      4.478441  0.863747  4.788175            0           0           0  
      2.372432 -0.547396  3.590931            0           0           0  
      3.910218 -0.549612  7.264875            0           0           0  
      1.404514  2.261803  8.208006            0           0           0  
      0.256456  0.856184  2.393954            0           0           0  
      1.927561  0.875791  5.927305            0           0           0  
      0.679652  2.259763  0.000000            0           0           0  
      7.450775 -0.547396  1.196977            0           0           0  
      9.138224 -0.541152  4.785673            0           0           0  
      7.027580 -1.950976  3.590931            0           0           0  
      8.619372 -1.930270  7.279201            0           0           0  
      6.056298  0.771156  8.201239            0           0           0  
      4.911604 -0.547396  2.393954            0           0           0  
      6.605588 -0.531448  5.889257            0           0           0  
      5.334799  0.856184  0.000000            0           0           0  
     12.105922 -1.950976  1.196977            0           0           0  
     13.774063 -1.950403  4.794338            0           0           0  
     11.682727 -3.354556  3.590931            0           0           0  
     13.241175 -3.348564  7.292553            0           0           0  
     10.727219 -0.534021  8.232560            0           0           0  
      9.566751 -1.950976  2.393954            0           0           0  
     11.241264 -1.935348  5.941606            0           0           0  
      9.989946 -0.547396  0.000000            0           0           0  
      2.795628  3.663343  1.196977            0           0           0  
      4.485531  3.674737  4.787554            0           0           0  
      2.372432  2.259763  3.590931            0           0           0  
      3.954996  2.274535  7.230936            0           0           0  
      1.422011  5.069262  8.215441            0           0           0  
      0.256456  3.663343  2.393954            0           0           0  
      1.927070  3.681343  5.934067            0           0           0  
      0.679652  5.066923  0.000000            0           0           0  
      7.450775  2.259763  1.196977            0           0           0  
      9.113949  2.266171  4.788244            0           0           0  
      7.027580  0.856184  3.590931            0           0           0  
      8.609463  0.856289  7.260805            0           0           0  
      6.052443  3.508248  8.409661            0           0           0  
      4.911604  2.259763  2.393954            0           0           0  
      6.562591  2.310861  5.988205            0           0           0  
      5.334799  3.663343  0.000000            0           0           0  
     12.105922  0.856184  1.196977            0           0           0  
     13.780951  0.863682  4.789406            0           0           0  
     11.682727 -0.547396  3.590931            0           0           0  
     13.254625 -0.533300  7.276247            0           0           0  
     10.708910  2.262355  8.231048            0           0           0  
      9.566751  0.856184  2.393954            0           0           0  
     11.242057  0.875240  5.936386            0           0           0  
      9.989946  2.259763  0.000000            0           0           0  
      2.795628  6.470503  1.196977            0           0           0  
      4.488009  6.466116  4.788091            0           0           0  
      2.372432  5.066923  3.590931            0           0           0  
      4.008134  5.072666  7.271881            0           0           0  
      1.400635  7.869322  8.207175            0           0           0  
      0.256456  6.470503  2.393954            0           0           0  
      1.925374  6.476116  5.935419            0           0           0  
      0.679652  7.874082  0.000000            0           0           0  
      7.450775  5.066923  1.196977            0           0           0  
      9.086403  5.070384  4.802185            0           0           0  
      7.027580  3.663343  3.590931            0           0           0  
      8.602098  3.662584  7.263250            0           0           0  
      6.046664  6.611358  8.395775            0           0           0  
      4.911604  5.066923  2.393954            0           0           0  
      6.533272  5.089953  6.102859            0           0           0  
      5.334799  6.470503  0.000000            0           0           0  
     12.105922  3.663343  1.196977            0           0           0  
     13.771391  3.674986  4.795740            0           0           0  
     11.682727  2.259763  3.590931            0           0           0  
     13.241341  2.271190  7.281551            0           0           0  
     10.690013  5.069540  8.232887            0           0           0  
      9.566751  3.663343  2.393954            0           0           0  
     11.227071  3.682393  5.937830            0           0           0  
      9.989946  5.066923  0.000000            0           0           0  
      2.795628  9.277662  1.196977            0           0           0  
      4.478496  9.288067  4.785980            0           0           0  
      2.372432  7.874082  3.590931            0           0           0  
      3.952505  7.872571  7.223254            0           0           0  
      1.384246 10.685515  8.209067            0           0           0  
      0.256456  9.277662  2.393954            0           0           0  
      1.916007  9.287006  5.933566            0           0           0  
      0.679652 10.681242  0.000000            0           0           0  
      7.450775  7.874082  1.196977            0           0           0  
      9.114444  7.882286  4.789313            0           0           0  
      7.027580  6.470503  3.590931            0           0           0  
      8.607924  6.504496  7.255264            0           0           0  
      6.064488  9.364481  8.201098            0           0           0  
      4.911604  7.874082  2.393954            0           0           0  
      6.560253  7.865475  5.984790            0           0           0  
      5.334799  9.277662  0.000000            0           0           0  
     12.105922  6.470503  1.196977            0           0           0  
     13.770865  6.478153  4.798605            0           0           0  
     11.682727  5.066923  3.590931            0           0           0  
     13.231985  5.076935  7.304804            0           0           0  
     10.716533  7.887259  8.240367            0           0           0  
      9.566751  6.470503  2.393954            0           0           0  
     11.224709  6.483516  5.942110            0           0           0  
      9.989946  7.874082  0.000000            0           0           0  
      6.287582  3.650009 10.181228     0.035684    0.631405   -0.046836  
      6.248063  6.518744 10.174537     0.068817   -0.769008   -0.041844  
 
 Finite differences POTIM=  5.000000000000000E-002
  Warning from LATTYP: Monoclinic adjustement (A1->A3, A2->A1, A3->A2)!
  Warning from LATTYP: Got some problem with cell dimensions!
  Tried to take original basis but could not verify dimensions!
  LATTYP: Found a simple monoclinic cell.
 ALAT       =    15.6296026899
 B/A-ratio  =     1.1758992359
 C/A-ratio  =     1.7960530202
 COS(beta)  =    -0.9339475705
  
  Lattice vectors:
  
 A1 = ( -13.9654422400,  -7.0178987800,   0.0000000000)
 A2 = (   0.0000000000,   0.0000000000, -18.3788378600)
 A3 = (  27.9308844800,   2.8071595100,   0.0000000000)


Analysis of symmetry for initial positions (statically):
=====================================================================
 Subroutine PRICEL returns:
 Original cell was already a primitive cell.
 

 Routine SETGRP: Setting up the symmetry group for a 
 simple monoclinic supercell.


 Subroutine GETGRP returns: Found  1 space group operations
 (whereof  1 operations were pure point group operations)
 out of a pool of  4 trial point group operations.


The static configuration has the point symmetry C_1 .


Analysis of symmetry for dynamics (positions and initial velocities):
=====================================================================
 Subroutine PRICEL returns:
 Original cell was already a primitive cell.
 

 Routine SETGRP: Setting up the symmetry group for a 
 simple monoclinic supercell.


 Subroutine GETGRP returns: Found  1 space group operations
 (whereof  1 operations were pure point group operations)
 out of a pool of  4 trial point group operations.


The dynamic configuration has the point symmetry C_1 .


Analysis of constrained symmetry for selective dynamics:
=====================================================================
 Subroutine PRICEL returns:
 Original cell was already a primitive cell.
 

 Routine SETGRP: Setting up the symmetry group for a 
 simple monoclinic supercell.


 Subroutine GETGRP returns: Found  1 space group operations
 (whereof  1 operations were pure point group operations)
 out of a pool of  4 trial point group operations.


The constrained configuration has the point symmetry C_1 .
 
 KPOINTS: mesh auto                               

Automatic generation of k-mesh.
Space group operators:
 irot       det(A)        alpha          n_x          n_y          n_z        tau_x        tau_y        tau_z
    1     1.000000     0.000000     1.000000     0.000000     0.000000     0.000000     0.000000     0.000000
 
 Subroutine IBZKPT returns following result:
 ===========================================
 
 Found      2 irreducible k-points:
 
 Following reciprocal coordinates:
            Coordinates               Weight
  0.000000  0.000000  0.000000      1.000000
  0.000000  0.500000  0.000000      1.000000
 
 Following cartesian coordinates:
            Coordinates               Weight
  0.000000  0.000000  0.000000      1.000000
  0.013426  0.044529  0.000000      1.000000
 
     LOOP+:  cpu time  728.8592: real time  729.4562
    4ORBIT:  cpu time    0.0000: real time    0.0000

 total amount of memory used by VASP on root node   163211. kBytes
========================================================================

   base      :      30000. kBytes
   nonlr-proj:      45345. kBytes
   fftplans  :       7318. kBytes
   grid      :      27607. kBytes
   one-center:       1524. kBytes
   wavefun   :      51417. kBytes
 
  
  
 General timing and accounting informations for this job:
 ========================================================
  
                  Total CPU time used (sec):     7527.764
                            User time (sec):     7492.919
                          System time (sec):       34.845
                         Elapsed time (sec):     7571.931
  
                   Maximum memory used (kb):           0.
                   Average memory used (kb):           0.
  
                          Minor page faults:     10719594
                          Major page faults:            0
                 Voluntary context switches:        11892
