CeO2-111-700                            
           1
    11.556612    0.000000    0.000000
    -5.778306   10.008319    0.000000
    -0.000000    0.000000   18.000000
   O    Ce
  54  27
Direct configuration=    10
   0.16604135  0.06569415  0.16083890
   0.28830077  0.29995628  0.35518588
   0.16540093  0.07740635  0.43747230
   0.05037053  0.17039631  0.27467829
   0.49160282  0.06857319  0.17399725
   0.59977798  0.27316732  0.34197421
   0.48742995  0.06839557  0.44511233
   0.37241836  0.16124413  0.26464601
   0.84349956  0.07833927  0.17525682
   0.91645842  0.30146628  0.37544731
   0.81983618  0.05388872  0.45530338
   0.70025185  0.15963525  0.26581927
   0.15645691  0.39349523  0.19040691
   0.28162884  0.62626879  0.35665399
   0.17071563  0.39947327  0.44819410
   0.05766741  0.50984358  0.26112874
   0.49949322  0.40166770  0.18394498
   0.60735867  0.61407321  0.35686424
   0.49443783  0.40660870  0.43673951
   0.39703596  0.53314036  0.26420478
   0.83439007  0.41014938  0.17046109
   0.96004073  0.64422632  0.36572742
   0.75078424  0.36860103  0.47279244
   0.73252992  0.52879500  0.28121372
   0.17864212  0.75588589  0.19243369
   0.28169834  0.95634878  0.35937001
   0.15034302  0.70419659  0.46328500
   0.04045878  0.84798860  0.27644430
   0.50974196  0.73794273  0.18213883
   0.59826992  0.95492233  0.36374112
   0.49303317  0.72809839  0.45838284
   0.40881844  0.84778159  0.26654484
   0.83540889  0.73406651  0.17778704
   0.93632812  0.96225500  0.35741581
   0.81789268  0.73257670  0.46111253
   0.73748675  0.84082757  0.26897533
   0.06311112  0.17888890  0.00000000
   0.28533334  0.29000001  0.08736976
   0.39644445  0.17888890  0.00000000
   0.61866668  0.29000001  0.08736976
   0.72977779  0.17888890  0.00000000
   0.95200001  0.29000001  0.08736976
   0.06311112  0.51222224  0.00000000
   0.28533334  0.62333335  0.08736976
   0.39644445  0.51222224  0.00000000
   0.61866668  0.62333335  0.08736976
   0.72977779  0.51222224  0.00000000
   0.95200001  0.62333335  0.08736976
   0.06311112  0.84555557  0.00000000
   0.28533334  0.95666668  0.08736976
   0.39644445  0.84555557  0.00000000
   0.61866668  0.95666668  0.08736976
   0.72977779  0.84555557  0.00000000
   0.95200001  0.95666668  0.08736976
   0.04034974  0.17702748  0.40103529
   0.28505224  0.29397170  0.22593985
   0.38866629  0.17071496  0.40179333
   0.60681981  0.28985942  0.22019511
   0.71372326  0.17840602  0.41280385
   0.92672435  0.26576792  0.22542682
   0.06433223  0.51249254  0.41937926
   0.27550570  0.62466253  0.22020568
   0.38259129  0.50844744  0.39946850
   0.61667799  0.62973429  0.22231404
   0.71543615  0.52261579  0.40601309
   0.94110822  0.62840815  0.23267954
   0.03579384  0.85014554  0.40768773
   0.28524421  0.96476475  0.22309598
   0.38263286  0.83741623  0.39981172
   0.60083370  0.95986935  0.22045035
   0.71591916  0.84554053  0.40979547
   0.93673544  0.94395244  0.21675791
   0.17422223  0.06777779  0.04368488
   0.50755556  0.06777779  0.04368488
   0.84088890  0.06777779  0.04368488
   0.17422223  0.40111113  0.04368488
   0.50755556  0.40111113  0.04368488
   0.84088890  0.40111113  0.04368488
   0.17422223  0.73444446  0.04368488
   0.50755556  0.73444446  0.04368488
   0.84088890  0.73444446  0.04368488
Direct configuration=    20
   0.17580014  0.06475130  0.16527428
   0.29422579  0.30789490  0.34954241
   0.16519657  0.07661004  0.43916194
   0.05300548  0.17191646  0.27665397
   0.49548382  0.05870043  0.17379944
   0.60623731  0.27664572  0.34487138
   0.48698214  0.06736470  0.44812844
   0.38153541  0.18083152  0.27369307
   0.84222374  0.07271370  0.17363226
   0.91743251  0.29594978  0.36545319
   0.82349602  0.05195791  0.45477908
   0.70635569  0.16007166  0.26580187
   0.16067910  0.38678853  0.19236679
   0.28005449  0.61882780  0.36001315
   0.17582699  0.39879033  0.44600346
   0.06117284  0.52511853  0.26109632
   0.49603189  0.41034455  0.18265091
   0.60607446  0.62031591  0.35599528
   0.49159577  0.40332138  0.44406584
   0.38963998  0.53196813  0.26237968
   0.83589898  0.42042632  0.16763990
   0.96217609  0.64932514  0.37006505
   0.75483448  0.36595419  0.46399701
   0.73587443  0.53386820  0.27418563
   0.16797554  0.75033743  0.19408097
   0.27771331  0.95502228  0.35867133
   0.15986232  0.70550208  0.45121994
   0.04184146  0.85193285  0.27475638
   0.50780413  0.74153277  0.17692210
   0.59653510  0.94395623  0.36584961
   0.49190995  0.72698605  0.46113173
   0.40898427  0.84753578  0.27015128
   0.82582595  0.72608295  0.18417919
   0.93475058  0.95414575  0.36188211
   0.80785469  0.73203535  0.45323623
   0.73228079  0.84005147  0.27229141
   0.06311112  0.17888890  0.00000000
   0.28533334  0.29000001  0.08736976
   0.39644445  0.17888890  0.00000000
   0.61866668  0.29000001  0.08736976
   0.72977779  0.17888890  0.00000000
   0.95200001  0.29000001  0.08736976
   0.06311112  0.51222224  0.00000000
   0.28533334  0.62333335  0.08736976
   0.39644445  0.51222224  0.00000000
   0.61866668  0.62333335  0.08736976
   0.72977779  0.51222224  0.00000000
   0.95200001  0.62333335  0.08736976
   0.06311112  0.84555557  0.00000000
   0.28533334  0.95666668  0.08736976
   0.39644445  0.84555557  0.00000000
   0.61866668  0.95666668  0.08736976
   0.72977779  0.84555557  0.00000000
   0.95200001  0.95666668  0.08736976
   0.04438379  0.17966495  0.40286861
   0.28550048  0.29438070  0.22649953
   0.39363659  0.17577120  0.40121721
   0.60992871  0.28876928  0.22245147
   0.71887947  0.17973634  0.41480685
   0.92672768  0.26933712  0.22302134
   0.05954700  0.51116248  0.42244528
   0.27678513  0.62454406  0.22205576
   0.38323437  0.50523952  0.39767370
   0.62161817  0.63447667  0.22244162
   0.71597143  0.52456342  0.40801517
   0.94040784  0.62972520  0.23170103
   0.03568720  0.85084085  0.40754145
   0.28739896  0.96418234  0.22414055
   0.38672353  0.83973289  0.40217305
   0.60296362  0.95845957  0.21762466
   0.71784244  0.84911918  0.40930482
   0.93430625  0.94548156  0.21831992
   0.17422223  0.06777779  0.04368488
   0.50755556  0.06777779  0.04368488
   0.84088890  0.06777779  0.04368488
   0.17422223  0.40111113  0.04368488
   0.50755556  0.40111113  0.04368488
   0.84088890  0.40111113  0.04368488
   0.17422223  0.73444446  0.04368488
   0.50755556  0.73444446  0.04368488
   0.84088890  0.73444446  0.04368488
Direct configuration=    30
   0.18403693  0.06449529  0.17563278
   0.29318205  0.30879107  0.34526911
   0.16225087  0.07547340  0.44206197
   0.05062954  0.17226015  0.27903479
   0.50125002  0.05571818  0.17402012
   0.61340785  0.28277328  0.34896466
   0.49032309  0.06674708  0.45240181
   0.39406890  0.19705972  0.27949828
   0.83738076  0.06319841  0.17268446
   0.92639574  0.29267502  0.35626850
   0.83235946  0.05998661  0.45459630
   0.71921277  0.16732747  0.26526684
   0.16296551  0.38134350  0.18989517
   0.27341854  0.61242329  0.36302013
   0.16951076  0.39327066  0.44575442
   0.05864198  0.53360958  0.26406640
   0.49842246  0.41526992  0.18022004
   0.60511304  0.62786325  0.35568787
   0.49359212  0.39844157  0.45211139
   0.38454013  0.52659791  0.26229091
   0.83237765  0.42036084  0.17050357
   0.95498828  0.64397809  0.37425524
   0.76716841  0.36853481  0.45576970
   0.73439245  0.52969724  0.26933356
   0.16033991  0.74532385  0.19154874
   0.27150030  0.95006599  0.35747976
   0.17203301  0.71100186  0.44343424
   0.04515310  0.85723467  0.27308909
   0.50679665  0.74565784  0.16934156
   0.60148713  0.93896625  0.36746563
   0.49192973  0.72831077  0.46050139
   0.40030948  0.84589329  0.27397158
   0.82452057  0.72508399  0.18413178
   0.93363799  0.94813254  0.36756928
   0.80480495  0.73266391  0.44723944
   0.72535984  0.84484305  0.27454245
   0.06311112  0.17888890  0.00000000
   0.28533334  0.29000001  0.08736976
   0.39644445  0.17888890  0.00000000
   0.61866668  0.29000001  0.08736976
   0.72977779  0.17888890  0.00000000
   0.95200001  0.29000001  0.08736976
   0.06311112  0.51222224  0.00000000
   0.28533334  0.62333335  0.08736976
   0.39644445  0.51222224  0.00000000
   0.61866668  0.62333335  0.08736976
   0.72977779  0.51222224  0.00000000
   0.95200001  0.62333335  0.08736976
   0.06311112  0.84555557  0.00000000
   0.28533334  0.95666668  0.08736976
   0.39644445  0.84555557  0.00000000
   0.61866668  0.95666668  0.08736976
   0.72977779  0.84555557  0.00000000
   0.95200001  0.95666668  0.08736976
   0.04882474  0.18171467  0.40438593
   0.28516415  0.29486049  0.22663811
   0.39814783  0.18099437  0.40059109
   0.61325243  0.28832917  0.22458576
   0.72232139  0.18026286  0.41649006
   0.92854129  0.27487228  0.22066099
   0.05554832  0.51048936  0.42451554
   0.27766843  0.62410611  0.22410885
   0.38493503  0.50345592  0.39604842
   0.62484436  0.63815173  0.22283248
   0.71570383  0.52552935  0.40972204
   0.94093308  0.63082531  0.23056502
   0.03659066  0.85201717  0.40698762
   0.28825307  0.96288057  0.22517495
   0.39082925  0.84172066  0.40456665
   0.60553012  0.95612096  0.21513024
   0.71838563  0.85170547  0.40860605
   0.93308757  0.94784067  0.22023923
   0.17422223  0.06777779  0.04368488
   0.50755556  0.06777779  0.04368488
   0.84088890  0.06777779  0.04368488
   0.17422223  0.40111113  0.04368488
   0.50755556  0.40111113  0.04368488
   0.84088890  0.40111113  0.04368488
   0.17422223  0.73444446  0.04368488
   0.50755556  0.73444446  0.04368488
   0.84088890  0.73444446  0.04368488
Direct configuration=    40
   0.18938496  0.06669195  0.18647955
   0.28726636  0.30451953  0.34682535
   0.16011131  0.07552393  0.44545329
   0.04356621  0.16916371  0.27991458
   0.50590795  0.06016370  0.17505084
   0.61977408  0.28948175  0.35333773
   0.49706857  0.06779837  0.45580159
   0.40888981  0.20492233  0.27987520
   0.83147457  0.05499961  0.17264290
   0.93886470  0.29232188  0.35113836
   0.84346174  0.07652522  0.45516388
   0.73141873  0.17606001  0.26367744
   0.16086015  0.38052661  0.18338767
   0.26555956  0.60582164  0.36410273
   0.15637837  0.38637506  0.44789767
   0.05324826  0.53325250  0.26901025
   0.50515861  0.41573323  0.17730220
   0.60313034  0.63081675  0.35554963
   0.49922758  0.39442593  0.45793483
   0.38474996  0.52188099  0.26366177
   0.82605498  0.40977861  0.17686895
   0.93977944  0.62978388  0.37810868
   0.79069955  0.37976223  0.45140258
   0.72632728  0.51798002  0.26902027
   0.16043833  0.74455143  0.18485315
   0.26690522  0.94688343  0.35642012
   0.18165338  0.71867006  0.44162695
   0.04755224  0.86091251  0.27226092
   0.50597969  0.74770370  0.16419210
   0.61041230  0.94390098  0.36747958
   0.49212150  0.73073821  0.45727115
   0.38932309  0.84354458  0.27588039
   0.83198712  0.73419678  0.17842247
   0.93322776  0.94689315  0.37115096
   0.80854129  0.73158246  0.44591928
   0.71956697  0.85373830  0.27378631
   0.06311112  0.17888890  0.00000000
   0.28533334  0.29000001  0.08736976
   0.39644445  0.17888890  0.00000000
   0.61866668  0.29000001  0.08736976
   0.72977779  0.17888890  0.00000000
   0.95200001  0.29000001  0.08736976
   0.06311112  0.51222224  0.00000000
   0.28533334  0.62333335  0.08736976
   0.39644445  0.51222224  0.00000000
   0.61866668  0.62333335  0.08736976
   0.72977779  0.51222224  0.00000000
   0.95200001  0.62333335  0.08736976
   0.06311112  0.84555557  0.00000000
   0.28533334  0.95666668  0.08736976
   0.39644445  0.84555557  0.00000000
   0.61866668  0.95666668  0.08736976
   0.72977779  0.84555557  0.00000000
   0.95200001  0.95666668  0.08736976
   0.05327890  0.18314241  0.40551849
   0.28433988  0.29520205  0.22615198
   0.40204990  0.18583440  0.40020113
   0.61683209  0.28883211  0.22656449
   0.72461515  0.17992175  0.41756760
   0.93195609  0.28170580  0.21862021
   0.05247177  0.51034560  0.42540229
   0.27779303  0.62347117  0.22632037
   0.38716470  0.50317071  0.39476068
   0.62604212  0.64030053  0.22336392
   0.71481835  0.52563277  0.41090737
   0.94258994  0.63172511  0.22934513
   0.03874287  0.85364748  0.40608952
   0.28781597  0.96082286  0.22632530
   0.39468666  0.84319169  0.40693720
   0.60842322  0.95317752  0.21320670
   0.71769239  0.85337390  0.40787498
   0.93324031  0.95100811  0.22253003
   0.17422223  0.06777779  0.04368488
   0.50755556  0.06777779  0.04368488
   0.84088890  0.06777779  0.04368488
   0.17422223  0.40111113  0.04368488
   0.50755556  0.40111113  0.04368488
   0.84088890  0.40111113  0.04368488
   0.17422223  0.73444446  0.04368488
   0.50755556  0.73444446  0.04368488
   0.84088890  0.73444446  0.04368488
Direct configuration=    50
   0.19116587  0.07346226  0.19439616
   0.28015712  0.29754518  0.35336630
   0.16087271  0.07536380  0.44879631
   0.03592996  0.16305530  0.27707402
   0.50815010  0.06813993  0.17707028
   0.62355207  0.29426896  0.35888661
   0.50557943  0.07023477  0.45704851
   0.42027845  0.20485334  0.27614554
   0.82700466  0.05124031  0.17257573
   0.95096287  0.29534767  0.35119574
   0.85092504  0.09416049  0.45645119
   0.73677058  0.18069458  0.26186927
   0.15831533  0.38572780  0.17537387
   0.26140685  0.59852449  0.36236919
   0.14441146  0.38378627  0.45263659
   0.04861627  0.52821037  0.27382566
   0.51194813  0.41301819  0.17503590
   0.60064420  0.62946522  0.35507104
   0.50507438  0.39246772  0.45987075
   0.38985266  0.51967164  0.26560170
   0.82328228  0.39593950  0.18309207
   0.92437088  0.61479211  0.38073461
   0.82387093  0.39684120  0.45135762
   0.71708028  0.50883243  0.27156450
   0.16624368  0.74521869  0.17617801
   0.26608584  0.94894413  0.35638741
   0.18547162  0.72686589  0.44530860
   0.04651944  0.85834788  0.27312082
   0.50427636  0.74497671  0.16578877
   0.61916842  0.95790053  0.36601449
   0.49280576  0.73319988  0.45243596
   0.38112730  0.83946262  0.27556483
   0.84109371  0.74657082  0.17195675
   0.93178816  0.94968745  0.37109930
   0.81579712  0.73130002  0.44917043
   0.71566163  0.86034371  0.27050960
   0.06311112  0.17888890  0.00000000
   0.28533334  0.29000001  0.08736976
   0.39644445  0.17888890  0.00000000
   0.61866668  0.29000001  0.08736976
   0.72977779  0.17888890  0.00000000
   0.95200001  0.29000001  0.08736976
   0.06311112  0.51222224  0.00000000
   0.28533334  0.62333335  0.08736976
   0.39644445  0.51222224  0.00000000
   0.61866668  0.62333335  0.08736976
   0.72977779  0.51222224  0.00000000
   0.95200001  0.62333335  0.08736976
   0.06311112  0.84555557  0.00000000
   0.28533334  0.95666668  0.08736976
   0.39644445  0.84555557  0.00000000
   0.61866668  0.95666668  0.08736976
   0.72977779  0.84555557  0.00000000
   0.95200001  0.95666668  0.08736976
   0.05735991  0.18411424  0.40627311
   0.28331315  0.29520384  0.22508295
   0.40543360  0.18996112  0.40015636
   0.62064950  0.29014022  0.22831544
   0.72651434  0.17941077  0.41798960
   0.93649872  0.28921693  0.21716578
   0.04988302  0.51036172  0.42511853
   0.27688738  0.62272700  0.22856541
   0.38920317  0.50407484  0.39394223
   0.62571466  0.64076637  0.22375004
   0.71385459  0.52466003  0.41161905
   0.94486480  0.63215455  0.22808242
   0.04209062  0.85537052  0.40497194
   0.28650846  0.95822852  0.22757110
   0.39798183  0.84427120  0.40919462
   0.61154091  0.95055938  0.21186272
   0.71647363  0.85438246  0.40730178
   0.93484960  0.95518839  0.22504653
   0.17422223  0.06777779  0.04368488
   0.50755556  0.06777779  0.04368488
   0.84088890  0.06777779  0.04368488
   0.17422223  0.40111113  0.04368488
   0.50755556  0.40111113  0.04368488
   0.84088890  0.40111113  0.04368488
   0.17422223  0.73444446  0.04368488
   0.50755556  0.73444446  0.04368488
   0.84088890  0.73444446  0.04368488
Direct configuration=    60
   0.18929715  0.08300178  0.19848443
   0.27616696  0.29081447  0.36036437
   0.16366758  0.07279966  0.45141966
   0.03239412  0.15783777  0.27091841
   0.50684355  0.07369238  0.17945471
   0.62487756  0.29651266  0.36634419
   0.51311049  0.07245627  0.45627979
   0.42128082  0.19790078  0.27229157
   0.82642175  0.05328924  0.17148295
   0.96032033  0.30022305  0.35446820
   0.85160112  0.10573574  0.45877859
   0.73466765  0.17899344  0.26145846
   0.16032636  0.39616608  0.16984343
   0.26410841  0.59275934  0.35831079
   0.13835776  0.38616231  0.45966058
   0.04640600  0.52454861  0.27603316
   0.51517882  0.40910052  0.17414887
   0.60070003  0.62772602  0.35482422
   0.50815560  0.39267291  0.45816992
   0.39659223  0.51806221  0.26701655
   0.82956637  0.38990988  0.18565901
   0.91736527  0.60852510  0.37979408
   0.85744231  0.41136283  0.45523057
   0.71300400  0.51025151  0.27472965
   0.17287414  0.74382097  0.16971301
   0.26959315  0.95671814  0.35741933
   0.18622183  0.73647257  0.45202164
   0.04229977  0.84740231  0.27548906
   0.50149713  0.73666395  0.17354492
   0.62563833  0.97423604  0.36446123
   0.49564618  0.73555960  0.44717368
   0.37734873  0.83339940  0.27432685
   0.84631737  0.75421929  0.16955217
   0.92830093  0.95375582  0.36806237
   0.82306250  0.73548204  0.45498941
   0.71453380  0.85885190  0.26792846
   0.06311112  0.17888890  0.00000000
   0.28533334  0.29000001  0.08736976
   0.39644445  0.17888890  0.00000000
   0.61866668  0.29000001  0.08736976
   0.72977779  0.17888890  0.00000000
   0.95200001  0.29000001  0.08736976
   0.06311112  0.51222224  0.00000000
   0.28533334  0.62333335  0.08736976
   0.39644445  0.51222224  0.00000000
   0.61866668  0.62333335  0.08736976
   0.72977779  0.51222224  0.00000000
   0.95200001  0.62333335  0.08736976
   0.06311112  0.84555557  0.00000000
   0.28533334  0.95666668  0.08736976
   0.39644445  0.84555557  0.00000000
   0.61866668  0.95666668  0.08736976
   0.72977779  0.84555557  0.00000000
   0.95200001  0.95666668  0.08736976
   0.06083807  0.18506895  0.40675715
   0.28233871  0.29482834  0.22357646
   0.40836954  0.19314869  0.40038103
   0.62444016  0.29175200  0.22975435
   0.72870710  0.17963522  0.41782106
   0.94157940  0.29660733  0.21651702
   0.04745738  0.51012348  0.42389137
   0.27508747  0.62194613  0.23064917
   0.39054352  0.50577274  0.39363401
   0.62428315  0.63954838  0.22373601
   0.71332247  0.52266266  0.41199863
   0.94734533  0.63193491  0.22677370
   0.04631063  0.85691304  0.40384884
   0.28492221  0.95562920  0.22875420
   0.40022144  0.84521372  0.41121627
   0.61456700  0.94919263  0.21100469
   0.71531334  0.85499744  0.40683246
   0.93772233  0.96037125  0.22752997
   0.17422223  0.06777779  0.04368488
   0.50755556  0.06777779  0.04368488
   0.84088890  0.06777779  0.04368488
   0.17422223  0.40111113  0.04368488
   0.50755556  0.40111113  0.04368488
   0.84088890  0.40111113  0.04368488
   0.17422223  0.73444446  0.04368488
   0.50755556  0.73444446  0.04368488
   0.84088890  0.73444446  0.04368488
Direct configuration=    70
   0.18371250  0.08849418  0.19873849
   0.27745469  0.28728655  0.36456130
   0.16567210  0.06734287  0.45254666
   0.03647321  0.16113287  0.26460069
   0.50200845  0.07293443  0.18124433
   0.62637329  0.29831182  0.37360868
   0.51664218  0.07250264  0.45469444
   0.41276360  0.18726927  0.27120677
   0.82987821  0.06013225  0.16969361
   0.96575616  0.30348386  0.35764360
   0.84754230  0.10781198  0.46232732
   0.72881557  0.17392823  0.26284960
   0.16732228  0.40899099  0.16991529
   0.27249906  0.59076944  0.35398891
   0.13945406  0.38954739  0.46731908
   0.04717782  0.52511169  0.27460893
   0.51387643  0.40475628  0.17468931
   0.60514602  0.62815918  0.35631167
   0.50749308  0.39575796  0.45437791
   0.40090078  0.51356162  0.26751648
   0.84125736  0.39695215  0.18311588
   0.92014305  0.61378602  0.37443352
   0.87363526  0.41371203  0.46466455
   0.71574920  0.51994732  0.27688361
   0.17723442  0.74008665  0.16914639
   0.27677551  0.96776562  0.35839741
   0.18856966  0.74863792  0.45834984
   0.03832604  0.83193028  0.27810551
   0.49870111  0.72606481  0.18288000
   0.62838282  0.98355882  0.36330461
   0.50111817  0.73781259  0.44288806
   0.37774114  0.82852067  0.27382427
   0.84644414  0.75381847  0.17257552
   0.92469675  0.95775230  0.36365927
   0.82816565  0.74367262  0.46061364
   0.71669884  0.85012719  0.26816660
   0.06311112  0.17888890  0.00000000
   0.28533334  0.29000001  0.08736976
   0.39644445  0.17888890  0.00000000
   0.61866668  0.29000001  0.08736976
   0.72977779  0.17888890  0.00000000
   0.95200001  0.29000001  0.08736976
   0.06311112  0.51222224  0.00000000
   0.28533334  0.62333335  0.08736976
   0.39644445  0.51222224  0.00000000
   0.61866668  0.62333335  0.08736976
   0.72977779  0.51222224  0.00000000
   0.95200001  0.62333335  0.08736976
   0.06311112  0.84555557  0.00000000
   0.28533334  0.95666668  0.08736976
   0.39644445  0.84555557  0.00000000
   0.61866668  0.95666668  0.08736976
   0.72977779  0.84555557  0.00000000
   0.95200001  0.95666668  0.08736976
   0.06357067  0.18645970  0.40724640
   0.28175463  0.29432593  0.22173529
   0.41059758  0.19502971  0.40081454
   0.62781828  0.29330315  0.23086912
   0.73148737  0.18092889  0.41715698
   0.94692953  0.30308063  0.21676318
   0.04651628  0.51022501  0.42185190
   0.27283381  0.62109866  0.23233219
   0.39114943  0.50792207  0.39378945
   0.62204492  0.63679965  0.22329790
   0.71368446  0.52048088  0.41213877
   0.94975171  0.63115810  0.22543133
   0.05100841  0.85811371  0.40302089
   0.28352915  0.95351280  0.22976461
   0.40104540  0.84639701  0.41293931
   0.61723712  0.94933542  0.21064616
   0.71462020  0.85541193  0.40632727
   0.94132045  0.96584433  0.22969326
   0.17422223  0.06777779  0.04368488
   0.50755556  0.06777779  0.04368488
   0.84088890  0.06777779  0.04368488
   0.17422223  0.40111113  0.04368488
   0.50755556  0.40111113  0.04368488
   0.84088890  0.40111113  0.04368488
   0.17422223  0.73444446  0.04368488
   0.50755556  0.73444446  0.04368488
   0.84088890  0.73444446  0.04368488
Direct configuration=    80
   0.17463334  0.08344662  0.19495390
   0.28164871  0.28740612  0.36520424
   0.16475168  0.06074471  0.45182709
   0.04861849  0.17820599  0.26087066
   0.49651753  0.06643178  0.18190952
   0.63094584  0.30211693  0.37748656
   0.51464421  0.06928558  0.45336215
   0.40298499  0.17894704  0.27284474
   0.83497642  0.06879070  0.16901907
   0.96711661  0.30381823  0.35902065
   0.84237972  0.10086011  0.46617379
   0.72381425  0.17193923  0.26477357
   0.17531933  0.41933290  0.17527579
   0.28061811  0.59314297  0.35241776
   0.14617035  0.39205030  0.47269072
   0.05104577  0.52764910  0.27119970
   0.50955071  0.39933944  0.17624260
   0.61235383  0.63001221  0.36030987
   0.50408200  0.40250903  0.45000754
   0.40030956  0.50397420  0.26782903
   0.84997843  0.41191345  0.17712181
   0.92910589  0.62468477  0.36764897
   0.86833061  0.40409128  0.47871693
   0.72298679  0.52889134  0.27723279
   0.17836098  0.73591460  0.17445009
   0.28539041  0.97733611  0.35829591
   0.19370086  0.76143474  0.46164117
   0.03973534  0.82115865  0.27976185
   0.49714910  0.71978323  0.18933581
   0.62662897  0.98066733  0.36195237
   0.50631312  0.73972235  0.44074375
   0.38202349  0.82935146  0.27524250
   0.84319857  0.74700825  0.17850255
   0.92555672  0.96339994  0.35921205
   0.83080689  0.75316565  0.46357946
   0.72115743  0.84183119  0.27007947
   0.06311112  0.17888890  0.00000000
   0.28533334  0.29000001  0.08736976
   0.39644445  0.17888890  0.00000000
   0.61866668  0.29000001  0.08736976
   0.72977779  0.17888890  0.00000000
   0.95200001  0.29000001  0.08736976
   0.06311112  0.51222224  0.00000000
   0.28533334  0.62333335  0.08736976
   0.39644445  0.51222224  0.00000000
   0.61866668  0.62333335  0.08736976
   0.72977779  0.51222224  0.00000000
   0.95200001  0.62333335  0.08736976
   0.06311112  0.84555557  0.00000000
   0.28533334  0.95666668  0.08736976
   0.39644445  0.84555557  0.00000000
   0.61866668  0.95666668  0.08736976
   0.72977779  0.84555557  0.00000000
   0.95200001  0.95666668  0.08736976
   0.06559055  0.18840901  0.40801571
   0.28187570  0.29406210  0.21973480
   0.41169478  0.19527469  0.40145615
   0.63029570  0.29459657  0.23163879
   0.73480951  0.18313465  0.41620876
   0.95252112  0.30833266  0.21776596
   0.04773089  0.51108180  0.41916487
   0.27065684  0.62022465  0.23334851
   0.39158189  0.51023968  0.39437125
   0.61942099  0.63270982  0.22264305
   0.71531423  0.51915992  0.41208113
   0.95176398  0.63006784  0.22405707
   0.05584385  0.85885345  0.40274871
   0.28258117  0.95205381  0.23062045
   0.40061511  0.84824421  0.41436015
   0.61949468  0.95052054  0.21096685
   0.71473218  0.85562394  0.40575012
   0.94504443  0.97062113  0.23134422
   0.17422223  0.06777779  0.04368488
   0.50755556  0.06777779  0.04368488
   0.84088890  0.06777779  0.04368488
   0.17422223  0.40111113  0.04368488
   0.50755556  0.40111113  0.04368488
   0.84088890  0.40111113  0.04368488
   0.17422223  0.73444446  0.04368488
   0.50755556  0.73444446  0.04368488
   0.84088890  0.73444446  0.04368488
Direct configuration=    90
   0.16387615  0.06855721  0.18777878
   0.28390185  0.28873346  0.36334426
   0.16126901  0.05631006  0.44968072
   0.06470584  0.20360620  0.25999374
   0.49435228  0.05776890  0.18128488
   0.63833479  0.30764958  0.37663279
   0.50911183  0.06473822  0.45245440
   0.39877884  0.17781341  0.27538018
   0.83958454  0.07632216  0.17115912
   0.96464511  0.30365409  0.35933970
   0.83754911  0.08843096  0.46802205
   0.72287393  0.17731694  0.26623898
   0.17964724  0.42236752  0.18216962
   0.28203470  0.59964649  0.35528309
   0.15530296  0.39445687  0.47283516
   0.05620557  0.52651023  0.26922846
   0.50511104  0.39301136  0.17794995
   0.61942653  0.63093186  0.36543166
   0.50033785  0.41124900  0.44602454
   0.39619026  0.49194810  0.26891616
   0.85169306  0.42371147  0.17109782
   0.94078853  0.63258013  0.36398540
   0.85901423  0.39361825  0.48918728
   0.73072977  0.52950779  0.27607696
   0.17685695  0.73369890  0.18186437
   0.29248984  0.98102223  0.35746583
   0.19887693  0.77068122  0.46082870
   0.05065690  0.82415059  0.27979531
   0.49750940  0.72189158  0.19073196
   0.62252862  0.96922573  0.36028231
   0.50715638  0.74058189  0.44153795
   0.38899638  0.83661983  0.27851893
   0.83930018  0.73833150  0.18356048
   0.93482008  0.97345965  0.35534983
   0.83227413  0.76172921  0.46257249
   0.72657714  0.84003061  0.27146245
   0.06311112  0.17888890  0.00000000
   0.28533334  0.29000001  0.08736976
   0.39644445  0.17888890  0.00000000
   0.61866668  0.29000001  0.08736976
   0.72977779  0.17888890  0.00000000
   0.95200001  0.29000001  0.08736976
   0.06311112  0.51222224  0.00000000
   0.28533334  0.62333335  0.08736976
   0.39644445  0.51222224  0.00000000
   0.61866668  0.62333335  0.08736976
   0.72977779  0.51222224  0.00000000
   0.95200001  0.62333335  0.08736976
   0.06311112  0.84555557  0.00000000
   0.28533334  0.95666668  0.08736976
   0.39644445  0.84555557  0.00000000
   0.61866668  0.95666668  0.08736976
   0.72977779  0.84555557  0.00000000
   0.95200001  0.95666668  0.08736976
   0.06714476  0.19076102  0.40916599
   0.28265337  0.29390408  0.21782057
   0.41147498  0.19393090  0.40227703
   0.63154937  0.29559324  0.23199105
   0.73848638  0.18569904  0.41529120
   0.95818082  0.31253699  0.21923225
   0.04947320  0.51172760  0.41650172
   0.26926267  0.61982788  0.23362424
   0.39250436  0.51248552  0.39543392
   0.61685438  0.62749936  0.22205064
   0.71824499  0.51936666  0.41187299
   0.95312775  0.62908025  0.22263816
   0.06060563  0.85911054  0.40309383
   0.28208340  0.95114360  0.23139115
   0.39948957  0.85097697  0.41541689
   0.62119848  0.95220742  0.21216670
   0.71586143  0.85557903  0.40519219
   0.94872508  0.97448530  0.23245325
   0.17422223  0.06777779  0.04368488
   0.50755556  0.06777779  0.04368488
   0.84088890  0.06777779  0.04368488
   0.17422223  0.40111113  0.04368488
   0.50755556  0.40111113  0.04368488
   0.84088890  0.40111113  0.04368488
   0.17422223  0.73444446  0.04368488
   0.50755556  0.73444446  0.04368488
   0.84088890  0.73444446  0.04368488
Direct configuration=   100
   0.15494708  0.05132606  0.17924927
   0.28137666  0.28816200  0.36104163
   0.15795310  0.05723026  0.44729102
   0.07908757  0.22534156  0.26159432
   0.49749000  0.05064015  0.17943716
   0.64538513  0.31244598  0.37218092
   0.50465862  0.06403403  0.45189210
   0.40205800  0.18449371  0.27713470
   0.84303195  0.08089308  0.17613982
   0.95815067  0.30456945  0.36028226
   0.83316008  0.07524411  0.46582190
   0.72689803  0.18920382  0.26756497
   0.17963075  0.41853614  0.18592501
   0.27493509  0.60858058  0.36140008
   0.16433578  0.39686295  0.46685609
   0.05857645  0.51903668  0.27051042
   0.50360327  0.38830139  0.17874815
   0.62480835  0.62971486  0.36872835
   0.49901359  0.41758498  0.44351534
   0.39370408  0.48565527  0.27103034
   0.84662709  0.42503820  0.16819116
   0.95228488  0.63229983  0.36561883
   0.85300602  0.38616833  0.49071827
   0.73521468  0.51998198  0.27436726
   0.17431605  0.73440919  0.18744609
   0.29654570  0.97841118  0.35732895
   0.19928292  0.77323052  0.45702113
   0.06907349  0.84092067  0.27800108
   0.50033999  0.73023309  0.18742943
   0.62009506  0.95813065  0.35837792
   0.50313081  0.73965779  0.44521798
   0.39576541  0.84641370  0.28205719
   0.83634902  0.73126439  0.18547680
   0.95173008  0.98804551  0.35250405
   0.83465685  0.76797844  0.45773648
   0.73144523  0.84416507  0.27093703
   0.06311112  0.17888890  0.00000000
   0.28533334  0.29000001  0.08736976
   0.39644445  0.17888890  0.00000000
   0.61866668  0.29000001  0.08736976
   0.72977779  0.17888890  0.00000000
   0.95200001  0.29000001  0.08736976
   0.06311112  0.51222224  0.00000000
   0.28533334  0.62333335  0.08736976
   0.39644445  0.51222224  0.00000000
   0.61866668  0.62333335  0.08736976
   0.72977779  0.51222224  0.00000000
   0.95200001  0.62333335  0.08736976