CeO2-111-500                            
           1
    11.556612    0.000000    0.000000
    -5.778306   10.008319    0.000000
    -0.000000    0.000000   18.000000
   O    Ce
  54  27
Direct configuration=    10
   0.19146242  0.08000332  0.18158989
   0.27776388  0.29876565  0.36131261
   0.16567462  0.10325187  0.44771476
   0.06793098  0.16541749  0.27972047
   0.49470260  0.04993111  0.17784585
   0.59645711  0.28844883  0.35279278
   0.53014829  0.07890124  0.47273170
   0.35765871  0.12336476  0.29242418
   0.83232967  0.06967900  0.17180238
   0.96979960  0.29344521  0.35634057
   0.83210521  0.02944474  0.46979392
   0.72453768  0.18775380  0.26211700
   0.19303559  0.40084026  0.21393530
   0.30167418  0.61587091  0.36686503
   0.19751550  0.41209624  0.45853306
   0.08082280  0.50574118  0.27192653
   0.50858276  0.38782992  0.17335141
   0.65560764  0.64654089  0.36076549
   0.51631463  0.41014552  0.47145852
   0.43340499  0.51589787  0.28333493
   0.81463531  0.38071697  0.18306103
   0.96880603  0.63089230  0.36440378
   0.85816833  0.40734813  0.43753016
   0.75192404  0.53830178  0.26809629
   0.16767510  0.70504976  0.18435710
   0.30409436  0.96586206  0.40074280
   0.17644541  0.71734507  0.46035517
   0.08924160  0.84861869  0.27701353
   0.49508092  0.71189235  0.17244045
   0.65144367  0.02222060  0.35754117
   0.53011046  0.74577937  0.46031783
   0.40256882  0.84896172  0.27815245
   0.87195789  0.74216940  0.16650938
   0.96641283  0.93123875  0.36558164
   0.84048776  0.71776329  0.47787359
   0.74232568  0.85498669  0.25514632
   0.06311112  0.17888890  0.00000000
   0.28533334  0.29000001  0.08736976
   0.39644445  0.17888890  0.00000000
   0.61866668  0.29000001  0.08736976
   0.72977779  0.17888890  0.00000000
   0.95200001  0.29000001  0.08736976
   0.06311112  0.51222224  0.00000000
   0.28533334  0.62333335  0.08736976
   0.39644445  0.51222224  0.00000000
   0.61866668  0.62333335  0.08736976
   0.72977779  0.51222224  0.00000000
   0.95200001  0.62333335  0.08736976
   0.06311112  0.84555557  0.00000000
   0.28533334  0.95666668  0.08736976
   0.39644445  0.84555557  0.00000000
   0.61866668  0.95666668  0.08736976
   0.72977779  0.84555557  0.00000000
   0.95200001  0.95666668  0.08736976
   0.06346197  0.17778707  0.40711561
   0.28943334  0.28977761  0.24603780
   0.41505182  0.19194503  0.41247310
   0.60564546  0.28206258  0.21819292
   0.73606875  0.18452431  0.41211760
   0.94092884  0.27621178  0.22561345
   0.08522848  0.51988321  0.40239050
   0.30692837  0.61832533  0.22817965
   0.40886842  0.52344893  0.41413161
   0.61924011  0.61395448  0.22460108
   0.75464680  0.51594143  0.39470589
   0.95219916  0.59357553  0.22658963
   0.05531723  0.84387728  0.42033726
   0.27744970  0.93295295  0.22284557
   0.39992935  0.83560803  0.41081290
   0.62651555  0.96216334  0.21032889
   0.72387193  0.82695309  0.42699783
   0.97546017  0.96547992  0.22133977
   0.17422223  0.06777779  0.04368488
   0.50755556  0.06777779  0.04368488
   0.84088890  0.06777779  0.04368488
   0.17422223  0.40111113  0.04368488
   0.50755556  0.40111113  0.04368488
   0.84088890  0.40111113  0.04368488
   0.17422223  0.73444446  0.04368488
   0.50755556  0.73444446  0.04368488
   0.84088890  0.73444446  0.04368488
Direct configuration=    20
   0.17773986  0.06267953  0.17704167
   0.29985671  0.30885161  0.36468003
   0.17394789  0.10206147  0.45067826
   0.05399983  0.16468449  0.27491330
   0.50139992  0.05645985  0.18441309
   0.59970733  0.29995001  0.34779648
   0.53510779  0.07032187  0.47272708
   0.33840171  0.11706965  0.29397492
   0.84865763  0.08121610  0.16439741
   0.96799502  0.30270771  0.35112311
   0.82393330  0.01872406  0.47772084
   0.73619149  0.17426204  0.26165868
   0.18592627  0.39655183  0.21145546
   0.30518953  0.62228562  0.36109988
   0.19083780  0.41219017  0.46003829
   0.07794419  0.50844711  0.27898353
   0.50178064  0.38040969  0.17319884
   0.65863977  0.64776812  0.35597902
   0.50956020  0.40802010  0.47405175
   0.43159350  0.49230438  0.27953287
   0.80200654  0.36571178  0.17784842
   0.94549533  0.62135506  0.36798120
   0.85730219  0.41870490  0.44053039
   0.73217495  0.52323742  0.26586536
   0.15957709  0.69885433  0.18337636
   0.30519434  0.95709598  0.39600002
   0.17537445  0.72130943  0.45351650
   0.08014286  0.84157005  0.27773016
   0.49590750  0.70615277  0.18177182
   0.64062725  0.00556043  0.35959381
   0.52215462  0.74148222  0.45898003
   0.41482403  0.84835038  0.28065355
   0.88248185  0.74503505  0.17777533
   0.95828646  0.94036103  0.37759647
   0.84028784  0.71833323  0.47214775
   0.71638952  0.84673234  0.25175485
   0.06311112  0.17888890  0.00000000
   0.28533334  0.29000001  0.08736976
   0.39644445  0.17888890  0.00000000
   0.61866668  0.29000001  0.08736976
   0.72977779  0.17888890  0.00000000
   0.95200001  0.29000001  0.08736976
   0.06311112  0.51222224  0.00000000
   0.28533334  0.62333335  0.08736976
   0.39644445  0.51222224  0.00000000
   0.61866668  0.62333335  0.08736976
   0.72977779  0.51222224  0.00000000
   0.95200001  0.62333335  0.08736976
   0.06311112  0.84555557  0.00000000
   0.28533334  0.95666668  0.08736976
   0.39644445  0.84555557  0.00000000
   0.61866668  0.95666668  0.08736976
   0.72977779  0.84555557  0.00000000
   0.95200001  0.95666668  0.08736976
   0.06914891  0.18485133  0.40612481
   0.29002141  0.28709664  0.24645011
   0.41199359  0.18975318  0.41281801
   0.60341141  0.28443519  0.21780545
   0.73523293  0.18647368  0.41221913
   0.94168468  0.27678507  0.22560724
   0.08214909  0.51545455  0.40208039
   0.30215847  0.61469291  0.22906947
   0.41102151  0.52604025  0.41111185
   0.62354784  0.61207605  0.22673110
   0.75551288  0.51838325  0.39419589
   0.95068760  0.59573787  0.22729638
   0.05760824  0.84567927  0.41957456
   0.27024140  0.93061373  0.22213294
   0.40330661  0.84082216  0.41266822
   0.62457776  0.96136665  0.20918995
   0.72928144  0.82926437  0.42808837
   0.97754839  0.96186989  0.22307103
   0.17422223  0.06777779  0.04368488
   0.50755556  0.06777779  0.04368488
   0.84088890  0.06777779  0.04368488
   0.17422223  0.40111113  0.04368488
   0.50755556  0.40111113  0.04368488
   0.84088890  0.40111113  0.04368488
   0.17422223  0.73444446  0.04368488
   0.50755556  0.73444446  0.04368488
   0.84088890  0.73444446  0.04368488
Direct configuration=    30
   0.16446684  0.04572923  0.17253947
   0.31799723  0.31457814  0.36963730
   0.18540752  0.09601984  0.45560949
   0.04203830  0.16097624  0.27130378
   0.50509727  0.06662629  0.18703469
   0.60650320  0.30864462  0.34454274
   0.54296826  0.06884066  0.46923839
   0.32567678  0.12061269  0.29219897
   0.86439192  0.08824592  0.16105105
   0.96143169  0.30277472  0.35163625
   0.81927349  0.01512524  0.48233474
   0.74685398  0.16339796  0.26255439
   0.17959238  0.39239172  0.20403977
   0.30936441  0.62869774  0.35485866
   0.18197576  0.41151212  0.45843896
   0.06885821  0.51475099  0.28302598
   0.49360594  0.37620752  0.17510871
   0.65580419  0.64566669  0.35295960
   0.50076157  0.40470001  0.46986956
   0.42796758  0.47763416  0.27681297
   0.80815479  0.36729448  0.17239423
   0.94229444  0.62467141  0.36397259
   0.85288457  0.41896119  0.44515714
   0.71885813  0.50116744  0.26294964
   0.15726995  0.70082427  0.18092628
   0.30150603  0.94839279  0.39152195
   0.17408259  0.72320556  0.44599700
   0.07005248  0.83472148  0.27951821
   0.49791041  0.70415275  0.18757891
   0.62674787  0.97952574  0.36279682
   0.50653828  0.73266146  0.45794368
   0.42017264  0.84380297  0.28073217
   0.88697042  0.74546161  0.18956846
   0.94773886  0.95094377  0.38484404
   0.84452721  0.72233147  0.46369428
   0.69863502  0.84007986  0.24885058
   0.06311112  0.17888890  0.00000000
   0.28533334  0.29000001  0.08736976
   0.39644445  0.17888890  0.00000000
   0.61866668  0.29000001  0.08736976
   0.72977779  0.17888890  0.00000000
   0.95200001  0.29000001  0.08736976
   0.06311112  0.51222224  0.00000000
   0.28533334  0.62333335  0.08736976
   0.39644445  0.51222224  0.00000000
   0.61866668  0.62333335  0.08736976
   0.72977779  0.51222224  0.00000000
   0.95200001  0.62333335  0.08736976
   0.06311112  0.84555557  0.00000000
   0.28533334  0.95666668  0.08736976
   0.39644445  0.84555557  0.00000000
   0.61866668  0.95666668  0.08736976
   0.72977779  0.84555557  0.00000000
   0.95200001  0.95666668  0.08736976
   0.07447041  0.19148349  0.40550670
   0.29010096  0.28353957  0.24599119
   0.40834365  0.18714772  0.41361954
   0.60152282  0.28564280  0.21775462
   0.73356421  0.18721124  0.41234270
   0.94284155  0.27751719  0.22554045
   0.07895455  0.51120080  0.40232512
   0.29689739  0.61159351  0.23000577
   0.41315991  0.52712169  0.40866863
   0.62840733  0.61236951  0.22838511
   0.75363061  0.52027054  0.39482596
   0.94977024  0.59936652  0.22759437
   0.06045536  0.84724303  0.41883135
   0.26433064  0.92898251  0.22174414
   0.40709280  0.84744294  0.41435080
   0.62275667  0.96005708  0.20946381
   0.73634161  0.83291812  0.42905424
   0.97772592  0.95705544  0.22469904
   0.17422223  0.06777779  0.04368488
   0.50755556  0.06777779  0.04368488
   0.84088890  0.06777779  0.04368488
   0.17422223  0.40111113  0.04368488
   0.50755556  0.40111113  0.04368488
   0.84088890  0.40111113  0.04368488
   0.17422223  0.73444446  0.04368488
   0.50755556  0.73444446  0.04368488
   0.84088890  0.73444446  0.04368488
Direct configuration=    40
   0.15793469  0.03318676  0.16975787
   0.32123161  0.30987632  0.37422120
   0.19502032  0.08834779  0.45919774
   0.03913063  0.15697223  0.27291449
   0.50242950  0.07550703  0.18624152
   0.61040019  0.30651353  0.34631063
   0.55125845  0.07570822  0.46420194
   0.31939286  0.12918115  0.28838018
   0.87380706  0.08623083  0.16268392
   0.95323881  0.29353684  0.35930047
   0.81755774  0.01935267  0.48467712
   0.75096008  0.15508242  0.26669609
   0.17592865  0.39046106  0.19440286
   0.31037408  0.62817951  0.35089249
   0.17178770  0.40654422  0.45372187
   0.05819739  0.52185428  0.28242264
   0.48596126  0.37389997  0.17702794
   0.64920222  0.64170885  0.35301595
   0.49428878  0.40148752  0.46175730
   0.42568235  0.47799317  0.27632823
   0.82618165  0.38080669  0.16987344
   0.95438278  0.63654997  0.35456505
   0.84534322  0.40892312  0.45031471
   0.71718286  0.48293337  0.25999073
   0.16191776  0.71168188  0.17825456
   0.29479364  0.94730123  0.38645161
   0.16962411  0.72176913  0.44003895
   0.06577019  0.83371214  0.28338587
   0.49455819  0.70072982  0.18794386
   0.61689602  0.95564151  0.36854693
   0.49293576  0.72201269  0.45770584
   0.41617995  0.83867132  0.27661857
   0.88016243  0.74077327  0.19833517
   0.94381379  0.96405525  0.38654199
   0.85247311  0.72819030  0.45591703
   0.69671815  0.83612222  0.24794264
   0.06311112  0.17888890  0.00000000
   0.28533334  0.29000001  0.08736976
   0.39644445  0.17888890  0.00000000
   0.61866668  0.29000001  0.08736976
   0.72977779  0.17888890  0.00000000
   0.95200001  0.29000001  0.08736976
   0.06311112  0.51222224  0.00000000
   0.28533334  0.62333335  0.08736976
   0.39644445  0.51222224  0.00000000
   0.61866668  0.62333335  0.08736976
   0.72977779  0.51222224  0.00000000
   0.95200001  0.62333335  0.08736976
   0.06311112  0.84555557  0.00000000
   0.28533334  0.95666668  0.08736976
   0.39644445  0.84555557  0.00000000
   0.61866668  0.95666668  0.08736976
   0.72977779  0.84555557  0.00000000
   0.95200001  0.95666668  0.08736976
   0.07959241  0.19719400  0.40529731
   0.28937716  0.27946922  0.24455154
   0.40436163  0.18459000  0.41468315
   0.60049446  0.28593023  0.21770905
   0.73106357  0.18621297  0.41215100
   0.94452076  0.27856003  0.22499371
   0.07574989  0.50785511  0.40306382
   0.29179217  0.60931341  0.23072171
   0.41541791  0.52736522  0.40668018
   0.63290046  0.61439971  0.22942580
   0.74940518  0.52132522  0.39628405
   0.94913513  0.60368240  0.22751350
   0.06380775  0.84862913  0.41792654
   0.26003130  0.92787203  0.22163981
   0.41153545  0.85440552  0.41556705
   0.62093663  0.95822865  0.21105796
   0.74326445  0.83750380  0.42992186
   0.97554548  0.95162951  0.22615413
   0.17422223  0.06777779  0.04368488
   0.50755556  0.06777779  0.04368488
   0.84088890  0.06777779  0.04368488
   0.17422223  0.40111113  0.04368488
   0.50755556  0.40111113  0.04368488
   0.84088890  0.40111113  0.04368488
   0.17422223  0.73444446  0.04368488
   0.50755556  0.73444446  0.04368488
   0.84088890  0.73444446  0.04368488
Direct configuration=    50
   0.15815197  0.02646795  0.16964485
   0.30565938  0.29666823  0.37540689
   0.20029276  0.07923738  0.46133716
   0.04768818  0.15669537  0.27940471
   0.49532977  0.07868806  0.18337094
   0.61075190  0.29401044  0.35350484
   0.55179493  0.08582588  0.46055181
   0.32084629  0.13602746  0.28453311
   0.87518188  0.07728133  0.16817570
   0.94709385  0.28019077  0.37009745
   0.81652401  0.02777547  0.48506185
   0.74699353  0.14884096  0.27327896
   0.17362979  0.39081117  0.18505392
   0.30583520  0.61996747  0.35067389
   0.16431181  0.39847368  0.44811763
   0.05155027  0.52203113  0.27931836
   0.48269736  0.37343639  0.17810445
   0.64256607  0.63619735  0.35669173
   0.49714380  0.40199291  0.45367369
   0.42337874  0.49013210  0.27844010
   0.84751254  0.39798316  0.17145205
   0.95946721  0.64217844  0.34781121
   0.83584543  0.39697190  0.45382960
   0.72628275  0.48058435  0.25925142
   0.17163703  0.72869660  0.17622349
   0.28997093  0.95374275  0.38061831
   0.16391261  0.71791867  0.43733424
   0.07053246  0.84383421  0.28738109
   0.48730281  0.69622870  0.18325173
   0.61196652  0.93550921  0.37534022
   0.48508167  0.71292869  0.45948038
   0.40540777  0.83695266  0.26913736
   0.85985271  0.73166084  0.20206219
   0.94888199  0.97746713  0.38332942
   0.86023089  0.73176230  0.45099897
   0.71018999  0.83534288  0.24904006
   0.06311112  0.17888890  0.00000000
   0.28533334  0.29000001  0.08736976
   0.39644445  0.17888890  0.00000000
   0.61866668  0.29000001  0.08736976
   0.72977779  0.17888890  0.00000000
   0.95200001  0.29000001  0.08736976
   0.06311112  0.51222224  0.00000000
   0.28533334  0.62333335  0.08736976
   0.39644445  0.51222224  0.00000000
   0.61866668  0.62333335  0.08736976
   0.72977779  0.51222224  0.00000000
   0.95200001  0.62333335  0.08736976
   0.06311112  0.84555557  0.00000000
   0.28533334  0.95666668  0.08736976
   0.39644445  0.84555557  0.00000000
   0.61866668  0.95666668  0.08736976
   0.72977779  0.84555557  0.00000000
   0.95200001  0.95666668  0.08736976
   0.08415645  0.20159210  0.40541382
   0.28780545  0.27583093  0.24211952
   0.40019405  0.18212278  0.41585377
   0.60033962  0.28531490  0.21745347
   0.72880575  0.18424802  0.41152220
   0.94667784  0.27977417  0.22394334
   0.07223028  0.50568381  0.40398677
   0.28719539  0.60795394  0.23091686
   0.41762134  0.52696343  0.40489412
   0.63637329  0.61746323  0.22981441
   0.74465955  0.52169168  0.39803337
   0.94876865  0.60809699  0.22695791
   0.06804876  0.85006602  0.41666581
   0.25751623  0.92716531  0.22174756
   0.41620472  0.86078557  0.41612413
   0.61886119  0.95568234  0.21371647
   0.74929272  0.84327970  0.43072557
   0.97112653  0.94636429  0.22748663
   0.17422223  0.06777779  0.04368488
   0.50755556  0.06777779  0.04368488
   0.84088890  0.06777779  0.04368488
   0.17422223  0.40111113  0.04368488
   0.50755556  0.40111113  0.04368488
   0.84088890  0.40111113  0.04368488
   0.17422223  0.73444446  0.04368488
   0.50755556  0.73444446  0.04368488
   0.84088890  0.73444446  0.04368488
Direct configuration=    60
   0.15974926  0.02640227  0.17160599
   0.28021547  0.28267284  0.37224963
   0.20022252  0.06850551  0.46373896
   0.06550476  0.16332432  0.28540544
   0.48913978  0.07700186  0.17970551
   0.60963717  0.27758946  0.36133736
   0.53719571  0.09044251  0.45987970
   0.33266312  0.13957857  0.28171292
   0.86925699  0.06728692  0.17570666
   0.94355965  0.26926872  0.37889156
   0.81410989  0.03495992  0.48313918
   0.73770055  0.14527539  0.27909498
   0.17052380  0.39207129  0.17797704
   0.29527321  0.60837195  0.35312333
   0.16468245  0.39619294  0.44498188
   0.05231629  0.51156161  0.27620470
   0.48691219  0.37572555  0.17894296
   0.63938084  0.63125806  0.36267842
   0.51102640  0.40743167  0.44721672
   0.41792822  0.50462796  0.28098803
   0.86523400  0.41040105  0.17534831
   0.95152854  0.63726873  0.34756236
   0.82770671  0.39028876  0.45488377
   0.73727023  0.48994099  0.26220561
   0.17929543  0.74203976  0.17463505
   0.29170049  0.96185287  0.37477854
   0.16047673  0.71392353  0.43828908
   0.07813112  0.86159057  0.28877656
   0.48288105  0.69603175  0.17579350
   0.61028083  0.91953945  0.38079977
   0.48269008  0.70865308  0.46355817
   0.39406340  0.84022226  0.26095175
   0.83574433  0.72227117  0.20043870
   0.95603139  0.98291159  0.37764568
   0.86372312  0.73163995  0.44985613
   0.73083311  0.83889446  0.25134599
   0.06311112  0.17888890  0.00000000
   0.28533334  0.29000001  0.08736976
   0.39644445  0.17888890  0.00000000
   0.61866668  0.29000001  0.08736976
   0.72977779  0.17888890  0.00000000
   0.95200001  0.29000001  0.08736976
   0.06311112  0.51222224  0.00000000
   0.28533334  0.62333335  0.08736976
   0.39644445  0.51222224  0.00000000
   0.61866668  0.62333335  0.08736976
   0.72977779  0.51222224  0.00000000
   0.95200001  0.62333335  0.08736976
   0.06311112  0.84555557  0.00000000
   0.28533334  0.95666668  0.08736976
   0.39644445  0.84555557  0.00000000
   0.61866668  0.95666668  0.08736976
   0.72977779  0.84555557  0.00000000
   0.95200001  0.95666668  0.08736976
   0.08753996  0.20392160  0.40590861
   0.28542584  0.27340336  0.23890606
   0.39609524  0.17970299  0.41698076
   0.60088092  0.28397786  0.21719890
   0.72769136  0.18214378  0.41054017
   0.94907552  0.28073193  0.22261206
   0.06819644  0.50439051  0.40486665
   0.28333896  0.60748208  0.23053566
   0.41939306  0.52583208  0.40322681
   0.63812780  0.62092981  0.22972019
   0.73984945  0.52100070  0.39988052
   0.94890540  0.61256184  0.22588596
   0.07337004  0.85188408  0.41505663
   0.25736181  0.92736697  0.22212004
   0.42040668  0.86596756  0.41610250
   0.61654479  0.95216420  0.21713487
   0.75462264  0.85054676  0.43147468
   0.96494364  0.94193645  0.22879812
   0.17422223  0.06777779  0.04368488
   0.50755556  0.06777779  0.04368488
   0.84088890  0.06777779  0.04368488
   0.17422223  0.40111113  0.04368488
   0.50755556  0.40111113  0.04368488
   0.84088890  0.40111113  0.04368488
   0.17422223  0.73444446  0.04368488
   0.50755556  0.73444446  0.04368488
   0.84088890  0.73444446  0.04368488
Direct configuration=    70
   0.15938828  0.03444838  0.17381743
   0.26997178  0.27838451  0.36522030
   0.19582514  0.05758959  0.46733304
   0.08579730  0.17537503  0.28427724
   0.48957260  0.07483309  0.17613127
   0.60805170  0.26386363  0.36440781
   0.51205862  0.08498207  0.46114195
   0.35574176  0.14755107  0.27895356
   0.85824628  0.06185182  0.18303731
   0.94053533  0.26451297  0.38276005
   0.81033926  0.03912831  0.47924294
   0.72567425  0.14398465  0.28131861
   0.16652364  0.39303232  0.17453432
   0.28122456  0.59951603  0.35556565
   0.17412962  0.40617662  0.44620187
   0.05816719  0.49558401  0.27374931
   0.49763726  0.38128254  0.18047922
   0.64002007  0.63073995  0.36741529
   0.52877949  0.41392549  0.44213673
   0.40968842  0.51516501  0.28046138
   0.87380181  0.41331377  0.17871419
   0.93891763  0.62648512  0.35053752
   0.82371180  0.39046780  0.45367903
   0.73987171  0.49872503  0.26742810
   0.17658708  0.74008144  0.17262273
   0.29960974  0.96561406  0.36977999
   0.16094279  0.71246808  0.44197079
   0.08000517  0.87586842  0.28785327
   0.48597092  0.70405101  0.16931929
   0.61094481  0.91050257  0.38206484
   0.48332650  0.70841427  0.46832960
   0.38908676  0.84581103  0.25517099
   0.82692644  0.71761454  0.19191795
   0.95861823  0.97525447  0.37177994
   0.86329993  0.73102715  0.45250372
   0.74769846  0.84621350  0.25567001
   0.06311112  0.17888890  0.00000000
   0.28533334  0.29000001  0.08736976
   0.39644445  0.17888890  0.00000000
   0.61866668  0.29000001  0.08736976
   0.72977779  0.17888890  0.00000000
   0.95200001  0.29000001  0.08736976
   0.06311112  0.51222224  0.00000000
   0.28533334  0.62333335  0.08736976
   0.39644445  0.51222224  0.00000000
   0.61866668  0.62333335  0.08736976
   0.72977779  0.51222224  0.00000000
   0.95200001  0.62333335  0.08736976
   0.06311112  0.84555557  0.00000000
   0.28533334  0.95666668  0.08736976
   0.39644445  0.84555557  0.00000000
   0.61866668  0.95666668  0.08736976
   0.72977779  0.84555557  0.00000000
   0.95200001  0.95666668  0.08736976
   0.08844479  0.20336293  0.40718500
   0.28237387  0.27179791  0.23525302
   0.39246325  0.17729772  0.41789798
   0.60193698  0.28211076  0.21726939
   0.72732412  0.18006137  0.40966606
   0.95163466  0.28135423  0.22123394
   0.06383742  0.50352876  0.40566750
   0.28027708  0.60771589  0.22976421
   0.42041222  0.52433655  0.40196615
   0.63720745  0.62393007  0.22949583
   0.73515726  0.51908072  0.40189875
   0.94971939  0.61687308  0.22469182
   0.07921871  0.85389466  0.41329280
   0.26008512  0.92952496  0.22280922
   0.42346390  0.86966189  0.41587210
   0.61420235  0.94790270  0.22089551
   0.75961488  0.85879520  0.43216717
   0.95770878  0.93894637  0.23016909
   0.17422223  0.06777779  0.04368488
   0.50755556  0.06777779  0.04368488
   0.84088890  0.06777779  0.04368488
   0.17422223  0.40111113  0.04368488
   0.50755556  0.40111113  0.04368488
   0.84088890  0.40111113  0.04368488
   0.17422223  0.73444446  0.04368488
   0.50755556  0.73444446  0.04368488
   0.84088890  0.73444446  0.04368488
Direct configuration=    80
   0.15993194  0.04975520  0.17569720
   0.28413834  0.28628744  0.35845131
   0.18932780  0.04971487  0.47091011
   0.09603674  0.18622795  0.27704034
   0.49752502  0.07369594  0.17310081
   0.60590506  0.25520249  0.36201089
   0.48627321  0.07061283  0.46406367
   0.38637534  0.16386064  0.27502138
   0.84493632  0.06292575  0.18819592
   0.94005322  0.26521686  0.38179383
   0.80818273  0.04478427  0.47495769
   0.71306154  0.14422326  0.27984184
   0.16397583  0.39345866  0.17449133
   0.26938106  0.59816953  0.35630519
   0.18649417  0.41795324  0.45047118
   0.06480953  0.48112603  0.27292523
   0.51043663  0.39063849  0.18260867
   0.64098462  0.63742583  0.36773540
   0.53784621  0.41479098  0.43957260
   0.40260441  0.52130873  0.27591423
   0.87076312  0.40876634  0.18041758
   0.93413016  0.61702697  0.35253426
   0.82461926  0.39382863  0.45090662
   0.73233387  0.50275961  0.27179209
   0.16345473  0.72515505  0.17230790
   0.30832589  0.96259712  0.36570269
   0.16448748  0.71522487  0.44678370
   0.07680337  0.87865100  0.28618068
   0.49713900  0.71999467  0.16789004
   0.61272457  0.91013779  0.37745092
   0.48461662  0.70925815  0.47143776
   0.39255663  0.84930587  0.25376382
   0.83690263  0.71861990  0.17757035
   0.95810417  0.96236884  0.36752443
   0.86278507  0.73438199  0.45789362
   0.75112531  0.85025119  0.26310222
   0.06311112  0.17888890  0.00000000
   0.28533334  0.29000001  0.08736976
   0.39644445  0.17888890  0.00000000
   0.61866668  0.29000001  0.08736976
   0.72977779  0.17888890  0.00000000
   0.95200001  0.29000001  0.08736976
   0.06311112  0.51222224  0.00000000
   0.28533334  0.62333335  0.08736976
   0.39644445  0.51222224  0.00000000
   0.61866668  0.62333335  0.08736976
   0.72977779  0.51222224  0.00000000
   0.95200001  0.62333335  0.08736976
   0.06311112  0.84555557  0.00000000
   0.28533334  0.95666668  0.08736976
   0.39644445  0.84555557  0.00000000
   0.61866668  0.95666668  0.08736976
   0.72977779  0.84555557  0.00000000
   0.95200001  0.95666668  0.08736976
   0.08687730  0.20066232  0.40916502
   0.27945315  0.27066254  0.23114848
   0.38973572  0.17486326  0.41838368
   0.60326733  0.27964798  0.21787131
   0.72704078  0.17816133  0.40913279
   0.95425231  0.28170417  0.21988161
   0.05951997  0.50305027  0.40641094
   0.27784065  0.60836153  0.22870799
   0.42064085  0.52323345  0.40130209
   0.63385062  0.62613464  0.22926885
   0.73128668  0.51636941  0.40411244
   0.95074801  0.62034238  0.22364080
   0.08461852  0.85533510  0.41158958
   0.26523980  0.93400842  0.22352843
   0.42486836  0.87165941  0.41575173
   0.61211464  0.94353425  0.22453912
   0.76420016  0.86658684  0.43273021
   0.95034578  0.93784881  0.23137205
   0.17422223  0.06777779  0.04368488
   0.50755556  0.06777779  0.04368488
   0.84088890  0.06777779  0.04368488
   0.17422223  0.40111113  0.04368488
   0.50755556  0.40111113  0.04368488
   0.84088890  0.40111113  0.04368488
   0.17422223  0.73444446  0.04368488
   0.50755556  0.73444446  0.04368488
   0.84088890  0.73444446  0.04368488
Direct configuration=    90
   0.16421024  0.06719566  0.17794693
   0.30481521  0.29687039  0.35771784
   0.18316935  0.04818911  0.47225231
   0.08660447  0.18953337  0.27169420
   0.50810545  0.07112319  0.17087375
   0.60373449  0.25081762  0.35861722
   0.46780187  0.05407879  0.46943845
   0.41428705  0.18156240  0.26991199
   0.83301245  0.06699041  0.19021081
   0.94539635  0.26822382  0.37790790
   0.81117124  0.05723307  0.47178939
   0.70282208  0.14672106  0.27731144
   0.16601138  0.39387247  0.17546739
   0.26433680  0.60566725  0.35557106
   0.19474360  0.41877547  0.45528593
   0.06872954  0.47234668  0.27506232
   0.52053498  0.40353069  0.18389956
   0.63950420  0.64787521  0.36440325
   0.52980572  0.40626150  0.44103376
   0.40042946  0.52475292  0.26979139
   0.85795047  0.40191045  0.18111165
   0.94168995  0.61228464  0.35284005
   0.82945649  0.39639137  0.44766143
   0.71992029  0.50561835  0.27395345
   0.14869038  0.70971575  0.17646535
   0.31182437  0.95552942  0.36114666
   0.16901181  0.72208557  0.45138893
   0.07394225  0.86925967  0.28328975
   0.51355942  0.73945426  0.17275045
   0.61506230  0.91805599  0.36859215
   0.48608965  0.71015492  0.47127229
   0.39796993  0.84824614  0.25648673
   0.85243833  0.72381112  0.16530972
   0.95871285  0.95554453  0.36655103
   0.86381672  0.74240604  0.46395579
   0.74136621  0.84561527  0.27198108
   0.06311112  0.17888890  0.00000000
   0.28533334  0.29000001  0.08736976
   0.39644445  0.17888890  0.00000000
   0.61866668  0.29000001  0.08736976
   0.72977779  0.17888890  0.00000000
   0.95200001  0.29000001  0.08736976
   0.06311112  0.51222224  0.00000000
   0.28533334  0.62333335  0.08736976
   0.39644445  0.51222224  0.00000000
   0.61866668  0.62333335  0.08736976
   0.72977779  0.51222224  0.00000000
   0.95200001  0.62333335  0.08736976
   0.06311112  0.84555557  0.00000000
   0.28533334  0.95666668  0.08736976
   0.39644445  0.84555557  0.00000000
   0.61866668  0.95666668  0.08736976
   0.72977779  0.84555557  0.00000000
   0.95200001  0.95666668  0.08736976
   0.08463127  0.19761468  0.41105568
   0.27799253  0.27051321  0.22638863
   0.38824629  0.17254254  0.41822685
   0.60496279  0.27678995  0.21902064
   0.72655922  0.17666804  0.40863081
   0.95657631  0.28177770  0.21854102
   0.05571578  0.50326308  0.40704069
   0.27588743  0.60918982  0.22739135
   0.42016785  0.52308110  0.40105185
   0.62929959  0.62764653  0.22879092
   0.72913776  0.51392943  0.40622460
   0.95123975  0.62234736  0.22265723
   0.08881693  0.85539539  0.41013856
   0.27222198  0.94037737  0.22397262
   0.42442283  0.87144762  0.41580400
   0.61053299  0.93971864  0.22775403
   0.76779672  0.87239582  0.43296850
   0.94352399  0.93868888  0.23201341
   0.17422223  0.06777779  0.04368488
   0.50755556  0.06777779  0.04368488
   0.84088890  0.06777779  0.04368488
   0.17422223  0.40111113  0.04368488
   0.50755556  0.40111113  0.04368488
   0.84088890  0.40111113  0.04368488
   0.17422223  0.73444446  0.04368488
   0.50755556  0.73444446  0.04368488
   0.84088890  0.73444446  0.04368488
Direct configuration=   100
   0.17021861  0.07864254  0.18054769
   0.31759528  0.30128757  0.36112894
   0.17926207  0.05391162  0.46960813
   0.06587250  0.18563713  0.27169427
   0.51463268  0.06471682  0.16965078
   0.60252373  0.25077694  0.35945213
   0.45896128  0.04213017  0.47655656
   0.42331646  0.18944267  0.26528730
   0.82662413  0.06880655  0.18888576
   0.95415649  0.27092734  0.37339391
   0.81949768  0.07373678  0.46968935
   0.69852472  0.15319347  0.27645928
   0.17352741  0.39455777  0.17510677
   0.26687850  0.61973644  0.35489143
   0.19637762  0.40679632  0.45831423
   0.06842029  0.47032090  0.27944403
   0.52389957  0.41588601  0.18252704
   0.63561490  0.65447949  0.36178730
   0.51394853  0.39442752  0.44566314
   0.40263707  0.52584505  0.26477146
   0.84084225  0.39639180  0.18155281
   0.95556511  0.61105730  0.35315540
   0.83517056  0.39755947  0.44498351
   0.71037936  0.51059513  0.27644808
   0.14327118  0.70305624  0.18336134
   0.30808109  0.95025302  0.35534737
   0.17272597  0.73226075  0.45501937
   0.07207964  0.85295830  0.27769730
   0.52904624  0.75342051  0.17994265
   0.61826703  0.93281846  0.36066833
   0.48871098  0.71231835  0.46764720
   0.39632479  0.84261914  0.26167902
   0.86539963  0.73388253  0.16294256
   0.96184207  0.95822306  0.36842738
   0.86463595  0.75206417  0.46838092
   0.73171460  0.83812064  0.27875505
   0.06311112  0.17888890  0.00000000
   0.28533334  0.29000001  0.08736976
   0.39644445  0.17888890  0.00000000
   0.61866668  0.29000001  0.08736976
   0.72977779  0.17888890  0.00000000
   0.95200001  0.29000001  0.08736976
   0.06311112  0.51222224  0.00000000
   0.28533334  0.62333335  0.08736976
   0.39644445  0.51222224  0.00000000
   0.61866668  0.62333335  0.08736976
   0.72977779  0.51222224  0.00000000
   0.95200001  0.62333335  0.08736976