       N       E                     dE             d eps       ncg     rms          rms(c)
DAV:   1     0.132522794544E+04    0.13252E+04   -0.68766E+04  9600   0.152E+03
DAV:   2     0.520973930951E+02   -0.12731E+04   -0.11906E+04  9600   0.347E+02
DAV:   3    -0.107168889889E+03   -0.15927E+03   -0.14321E+03 10764   0.150E+02
DAV:   4    -0.116491569854E+03   -0.93227E+01   -0.89413E+01 10836   0.353E+01
DAV:   5    -0.116723646042E+03   -0.23208E+00   -0.23152E+00 10572   0.494E+00    0.369E+01
RMM:   6    -0.122348279974E+03   -0.56246E+01   -0.19783E+02  9632   0.730E+01    0.454E+01
RMM:   7    -0.122167306242E+03    0.18097E+00   -0.46963E+01  9605   0.312E+01    0.586E+01
RMM:   8    -0.108113436047E+03    0.14054E+02   -0.10057E+01  9634   0.151E+01    0.495E+01
RMM:   9    -0.102442441036E+03    0.56710E+01   -0.54051E+00  9663   0.105E+01    0.324E+01
RMM:  10    -0.987607806103E+02    0.36817E+01   -0.24038E+00  9637   0.700E+00    0.265E+01
RMM:  11    -0.968858545541E+02    0.18749E+01   -0.25966E+00  9662   0.708E+00    0.187E+01
RMM:  12    -0.969372989471E+02   -0.51444E-01   -0.16436E+00  9649   0.565E+00    0.204E+01
RMM:  13    -0.967738885065E+02    0.16341E+00   -0.86991E-01  9635   0.426E+00    0.180E+01
RMM:  14    -0.966716976405E+02    0.10219E+00   -0.41041E-01  9643   0.293E+00    0.147E+01
RMM:  15    -0.969185483960E+02   -0.24685E+00   -0.39067E-01  9622   0.242E+00    0.131E+01
RMM:  16    -0.969704091352E+02   -0.51861E-01   -0.35713E-01  9637   0.236E+00    0.798E+00
RMM:  17    -0.971748566820E+02   -0.20445E+00   -0.22256E-01  9628   0.206E+00    0.775E+00
RMM:  18    -0.977054641886E+02   -0.53061E+00   -0.32833E-01  9620   0.241E+00    0.647E+00
RMM:  19    -0.979543752008E+02   -0.24891E+00   -0.24285E-01  9639   0.217E+00    0.634E+00
RMM:  20    -0.984629863052E+02   -0.50861E+00   -0.28519E-01  9618   0.198E+00    0.390E+00
RMM:  21    -0.986920187452E+02   -0.22903E+00   -0.11532E-01  9640   0.144E+00    0.274E+00
RMM:  22    -0.992010155102E+02   -0.50900E+00   -0.17103E-01  9620   0.132E+00    0.431E+00
RMM:  23    -0.994224909572E+02   -0.22148E+00   -0.83923E-02  9637   0.105E+00    0.408E+00
RMM:  24    -0.999736143876E+02   -0.55112E+00   -0.27377E-01  9613   0.148E+00    0.483E+00
RMM:  25    -0.100323672811E+03   -0.35006E+00   -0.21555E-01  9616   0.138E+00    0.404E+00
RMM:  26    -0.100604742527E+03   -0.28107E+00   -0.12157E-01  9616   0.103E+00    0.353E+00
RMM:  27    -0.100706465512E+03   -0.10172E+00   -0.41888E-02  9630   0.732E-01    0.175E+00
RMM:  28    -0.100799822040E+03   -0.93357E-01   -0.19630E-02  9611   0.401E-01    0.125E+00
RMM:  29    -0.100830203624E+03   -0.30382E-01   -0.73496E-03  9613   0.344E-01    0.142E+00
RMM:  30    -0.100903363176E+03   -0.73160E-01   -0.17417E-02  9609   0.444E-01    0.795E-01
RMM:  31    -0.100928503466E+03   -0.25140E-01   -0.64882E-03  9618   0.330E-01    0.834E-01
RMM:  32    -0.100957578769E+03   -0.29075E-01   -0.54974E-03  9603   0.271E-01    0.525E-01
RMM:  33    -0.100965684288E+03   -0.81055E-02   -0.17550E-03  9574   0.174E-01    0.501E-01
RMM:  34    -0.100978967437E+03   -0.13283E-01   -0.21145E-03  9590   0.160E-01    0.185E-01
RMM:  35    -0.100986452642E+03   -0.74852E-02   -0.88793E-04  8733   0.906E-02    0.415E-01
RMM:  36    -0.100989771042E+03   -0.33184E-02   -0.27630E-04  6360   0.530E-02    0.225E-01
RMM:  37    -0.100993211288E+03   -0.34402E-02   -0.41429E-04  6970   0.576E-02    0.145E-01
RMM:  38    -0.100994333996E+03   -0.11227E-02   -0.76763E-05  5854   0.320E-02    0.114E-01
RMM:  39    -0.100995468195E+03   -0.11342E-02   -0.90492E-05  5934   0.264E-02    0.236E-02
RMM:  40    -0.100995952512E+03   -0.48432E-03   -0.21034E-05  5673   0.130E-02    0.316E-02
RMM:  41    -0.100996287506E+03   -0.33499E-03   -0.12038E-05  4666   0.852E-03    0.273E-02
RMM:  42    -0.100996507789E+03   -0.22028E-03   -0.10762E-05  4328   0.789E-03    0.176E-02
RMM:  43    -0.100996574184E+03   -0.66395E-04   -0.58551E-06  3745   0.675E-03
   1 F= -.10099657E+03 E0= -.10099704E+03  d E =-.100997E+03  mag=     9.3339
       N       E                     dE             d eps       ncg     rms          rms(c)
DAV:   1    -0.101021928824E+03   -0.25421E-01   -0.29268E+00 10392   0.470E+00    0.421E-01
RMM:   2    -0.101040263769E+03   -0.18335E-01   -0.83871E-02  9634   0.106E+00    0.198E+00
RMM:   3    -0.101035497489E+03    0.47663E-02   -0.89437E-03  9617   0.424E-01    0.194E+00
RMM:   4    -0.101028938862E+03    0.65586E-02   -0.41656E-03  9648   0.287E-01    0.832E-01
RMM:   5    -0.101027332801E+03    0.16061E-02   -0.20937E-03  9593   0.205E-01    0.513E-01
RMM:   6    -0.101026723570E+03    0.60923E-03   -0.12440E-03  9530   0.164E-01    0.340E-01
RMM:   7    -0.101026543356E+03    0.18021E-03   -0.96070E-04  9460   0.142E-01    0.312E-01
RMM:   8    -0.101026193178E+03    0.35018E-03   -0.83998E-04  9431   0.135E-01    0.236E-01
RMM:   9    -0.101026296734E+03   -0.10356E-03   -0.61272E-04  8871   0.112E-01    0.280E-01
RMM:  10    -0.101025973575E+03    0.32316E-03   -0.34035E-04  7426   0.895E-02    0.983E-02
RMM:  11    -0.101025958206E+03    0.15368E-04   -0.84169E-05  5363   0.442E-02
   2 F= -.10102596E+03 E0= -.10102628E+03  d E =-.293840E-01  mag=     9.3411
       N       E                     dE             d eps       ncg     rms          rms(c)
DAV:   1    -0.101039229079E+03   -0.13256E-01   -0.67066E-01 10056   0.209E+00    0.201E-01
RMM:   2    -0.101044264815E+03   -0.50357E-02   -0.20993E-02  9655   0.451E-01    0.113E+00
RMM:   3    -0.101041871401E+03    0.23934E-02   -0.17657E-03  9555   0.185E-01    0.741E-01
RMM:   4    -0.101040833215E+03    0.10382E-02   -0.89648E-04  9409   0.133E-01    0.294E-01
RMM:   5    -0.101040851831E+03   -0.18616E-04   -0.64518E-04  8951   0.112E-01
   3 F= -.10104085E+03 E0= -.10104116E+03  d E =-.148936E-01  mag=     9.3417
       N       E                     dE             d eps       ncg     rms          rms(c)
DAV:   1    -0.101047255253E+03   -0.64220E-02   -0.33129E+01  9600   0.163E+01    0.151E+00
RMM:   2    -0.101536265965E+03   -0.48901E+00   -0.97983E-01  9636   0.415E+00    0.107E+01
RMM:   3    -0.101227149757E+03    0.30912E+00   -0.14002E-01  9635   0.176E+00    0.672E+00
RMM:   4    -0.101112332958E+03    0.11482E+00   -0.62471E-02  9696   0.111E+00    0.156E+00
RMM:   5    -0.101117989820E+03   -0.56569E-02   -0.18997E-02  9614   0.626E-01    0.206E+00
RMM:   6    -0.101104528527E+03    0.13461E-01   -0.11081E-02  9612   0.491E-01    0.677E-01
RMM:   7    -0.101105616632E+03   -0.10881E-02   -0.53797E-03  9601   0.334E-01    0.860E-01
RMM:   8    -0.101103715388E+03    0.19012E-02   -0.40260E-03  9602   0.293E-01    0.611E-01
RMM:   9    -0.101103568619E+03    0.14677E-03   -0.38586E-03  9600   0.279E-01    0.590E-01
RMM:  10    -0.101102878930E+03    0.68969E-03   -0.23048E-03  9600   0.220E-01    0.427E-01
RMM:  11    -0.101102325895E+03    0.55304E-03   -0.10177E-03  9394   0.150E-01    0.244E-01
RMM:  12    -0.101102290494E+03    0.35400E-04   -0.22518E-04  6053   0.731E-02
   4 F= -.10110229E+03 E0= -.10110219E+03  d E =-.614387E-01  mag=     9.3645
       N       E                     dE             d eps       ncg     rms          rms(c)
DAV:   1    -0.101106477408E+03   -0.41515E-02   -0.59425E-01 10536   0.218E+00    0.281E-01
RMM:   2    -0.101149729725E+03   -0.43252E-01   -0.20694E-02  9621   0.607E-01    0.424E+00
RMM:   3    -0.101109503331E+03    0.40226E-01   -0.62310E-03  9609   0.378E-01    0.909E-01
RMM:   4    -0.101107610027E+03    0.18933E-02   -0.19729E-03  9540   0.201E-01    0.261E-01
RMM:   5    -0.101107952166E+03   -0.34214E-03   -0.57451E-04  8841   0.110E-01    0.356E-01
RMM:   6    -0.101107531294E+03    0.42087E-03   -0.33877E-04  7490   0.910E-02    0.104E-01
RMM:   7    -0.101107581844E+03   -0.50549E-04   -0.12639E-04  5505   0.524E-02
   5 F= -.10110758E+03 E0= -.10110748E+03  d E =-.529135E-02  mag=     9.3704
       N       E                     dE             d eps       ncg     rms          rms(c)
DAV:   1    -0.101112510417E+03   -0.49791E-02   -0.50360E+00  9600   0.636E+00    0.625E-01
RMM:   2    -0.101241690223E+03   -0.12918E+00   -0.13703E-01  9632   0.160E+00    0.662E+00
RMM:   3    -0.101136566097E+03    0.10512E+00   -0.23938E-02  9663   0.729E-01    0.243E+00
RMM:   4    -0.101121659883E+03    0.14906E-01   -0.11653E-02  9685   0.486E-01    0.608E-01
RMM:   5    -0.101123993599E+03   -0.23337E-02   -0.34746E-03  9603   0.264E-01    0.972E-01
RMM:   6    -0.101120541781E+03    0.34518E-02   -0.21538E-03  9492   0.220E-01    0.169E-01
RMM:   7    -0.101121295134E+03   -0.75335E-03   -0.10460E-03  9519   0.142E-01    0.479E-01
RMM:   8    -0.101120531306E+03    0.76383E-03   -0.84575E-04  9302   0.134E-01    0.165E-01
RMM:   9    -0.101120659644E+03   -0.12834E-03   -0.41850E-04  7772   0.910E-02    0.230E-01
RMM:  10    -0.101120531546E+03    0.12810E-03   -0.19678E-04  5882   0.705E-02    0.101E-01
RMM:  11    -0.101120511936E+03    0.19610E-04   -0.54071E-05  5329   0.374E-02
   6 F= -.10112051E+03 E0= -.10112043E+03  d E =-.129301E-01  mag=     9.3777
       N       E                     dE             d eps       ncg     rms          rms(c)
DAV:   1    -0.101123412547E+03   -0.28810E-02   -0.22316E+00  9816   0.423E+00    0.408E-01
RMM:   2    -0.101178525739E+03   -0.55113E-01   -0.59086E-02  9635   0.102E+00    0.440E+00
RMM:   3    -0.101133094130E+03    0.45432E-01   -0.10262E-02  9628   0.478E-01    0.154E+00
RMM:   4    -0.101127535619E+03    0.55585E-02   -0.47421E-03  9643   0.310E-01    0.428E-01
RMM:   5    -0.101128253563E+03   -0.71794E-03   -0.14267E-03  9480   0.170E-01    0.580E-01
RMM:   6    -0.101126999198E+03    0.12544E-02   -0.85173E-04  9065   0.138E-01    0.128E-01
RMM:   7    -0.101127155935E+03   -0.15674E-03   -0.38016E-04  7667   0.893E-02    0.233E-01
RMM:   8    -0.101127061590E+03    0.94345E-04   -0.31602E-04  7118   0.856E-02
   7 F= -.10112706E+03 E0= -.10112698E+03  d E =-.654965E-02  mag=     9.3813
       N       E                     dE             d eps       ncg     rms          rms(c)
DAV:   1    -0.101129019811E+03   -0.18639E-02   -0.16027E+00  9624   0.359E+00    0.340E-01
RMM:   2    -0.101161981061E+03   -0.32961E-01   -0.40770E-02  9639   0.832E-01    0.341E+00
RMM:   3    -0.101135955061E+03    0.26026E-01   -0.69041E-03  9632   0.388E-01    0.132E+00
RMM:   4    -0.101132026304E+03    0.39288E-02   -0.32820E-03  9620   0.256E-01    0.382E-01
RMM:   5    -0.101132421251E+03   -0.39495E-03   -0.10748E-03  9502   0.149E-01    0.461E-01
RMM:   6    -0.101131628984E+03    0.79227E-03   -0.59868E-04  8651   0.117E-01    0.154E-01
RMM:   7    -0.101131677196E+03   -0.48212E-04   -0.26869E-04  6617   0.762E-02
   8 F= -.10113168E+03 E0= -.10113160E+03  d E =-.461561E-02  mag=     9.3830
       N       E                     dE             d eps       ncg     rms          rms(c)
DAV:   1    -0.101133104374E+03   -0.14754E-02   -0.10885E+00  9600   0.298E+00    0.337E-01
RMM:   2    -0.101165577233E+03   -0.32473E-01   -0.33718E-02  9628   0.804E-01    0.318E+00
RMM:   3    -0.101141532178E+03    0.24045E-01   -0.72037E-03  9620   0.401E-01    0.167E+00
RMM:   4    -0.101134882728E+03    0.66494E-02   -0.36973E-03  9617   0.275E-01    0.317E-01
RMM:   5    -0.101135308833E+03   -0.42611E-03   -0.11391E-03  9389   0.151E-01    0.446E-01
RMM:   6    -0.101134713867E+03    0.59497E-03   -0.55908E-04  8567   0.113E-01    0.193E-01
RMM:   7    -0.101134606226E+03    0.10764E-03   -0.30721E-04  6985   0.830E-02    0.117E-01
RMM:   8    -0.101134724894E+03   -0.11867E-03   -0.21705E-04  5939   0.694E-02    0.219E-01
RMM:   9    -0.101134590762E+03    0.13413E-03   -0.18902E-04  5714   0.687E-02    0.700E-02
RMM:  10    -0.101134630221E+03   -0.39459E-04   -0.76935E-05  5362   0.425E-02
   9 F= -.10113463E+03 E0= -.10113454E+03  d E =-.295302E-02  mag=     9.3848
       N       E                     dE             d eps       ncg     rms          rms(c)
DAV:   1    -0.101135829099E+03   -0.12383E-02   -0.57563E-01  9648   0.214E+00    0.185E-01
RMM:   2    -0.101146188898E+03   -0.10360E-01   -0.14017E-02  9632   0.484E-01    0.188E+00
RMM:   3    -0.101137762440E+03    0.84265E-02   -0.20275E-03  9613   0.210E-01    0.645E-01
RMM:   4    -0.101136965443E+03    0.79700E-03   -0.87131E-04  9264   0.135E-01    0.228E-01
RMM:   5    -0.101137067267E+03   -0.10182E-03   -0.27965E-04  6804   0.792E-02    0.268E-01
RMM:   6    -0.101136817432E+03    0.24984E-03   -0.19907E-04  5774   0.737E-02    0.536E-02
RMM:   7    -0.101136885833E+03   -0.68401E-04   -0.82808E-05  5423   0.423E-02
  10 F= -.10113689E+03 E0= -.10113679E+03  d E =-.225561E-02  mag=     9.3849
       N       E                     dE             d eps       ncg     rms          rms(c)
DAV:   1    -0.101137909725E+03   -0.10923E-02   -0.50531E-01  9648   0.200E+00    0.166E-01
RMM:   2    -0.101144976169E+03   -0.70664E-02   -0.11937E-02  9649   0.431E-01    0.152E+00
RMM:   3    -0.101139502441E+03    0.54737E-02   -0.15114E-03  9563   0.178E-01    0.572E-01
RMM:   4    -0.101138925717E+03    0.57672E-03   -0.69224E-04  8944   0.120E-01    0.223E-01
RMM:   5    -0.101139006926E+03   -0.81209E-04   -0.24975E-04  6433   0.758E-02
  11 F= -.10113901E+03 E0= -.10113889E+03  d E =-.212109E-02  mag=     9.3847
       N       E                     dE             d eps       ncg     rms          rms(c)
DAV:   1    -0.101138981840E+03   -0.56123E-04   -0.51513E-03 13092   0.401E-01    0.599E-02
RMM:   2    -0.101139247667E+03   -0.26583E-03   -0.33359E-04  7082   0.959E-02    0.279E-01
RMM:   3    -0.101139052805E+03    0.19486E-03   -0.21621E-04  5841   0.710E-02    0.156E-01
RMM:   4    -0.101139025012E+03    0.27793E-04   -0.29735E-05  5301   0.245E-02
  12 F= -.10113903E+03 E0= -.10113890E+03  d E =-.180862E-04  mag=     9.3843
       N       E                     dE             d eps       ncg     rms          rms(c)
DAV:   1    -0.101139922199E+03   -0.86939E-03   -0.13028E-01  9624   0.102E+00    0.123E-01
RMM:   2    -0.101142994796E+03   -0.30726E-02   -0.37542E-03  9611   0.254E-01    0.104E+00
RMM:   3    -0.101140968134E+03    0.20267E-02   -0.99067E-04  9417   0.149E-01    0.587E-01
RMM:   4    -0.101140159956E+03    0.80818E-03   -0.31422E-04  7209   0.814E-02    0.152E-01
RMM:   5    -0.101140191279E+03   -0.31324E-04   -0.16748E-04  5630   0.608E-02
  13 F= -.10114019E+03 E0= -.10114009E+03  d E =-.116627E-02  mag=     9.3838
       N       E                     dE             d eps       ncg     rms          rms(c)
DAV:   1    -0.101140721585E+03   -0.56163E-03   -0.14426E-01  9648   0.109E+00    0.119E-01
RMM:   2    -0.101143088881E+03   -0.23673E-02   -0.28439E-03  9622   0.251E-01    0.801E-01
RMM:   3    -0.101141494742E+03    0.15941E-02   -0.90488E-04  9268   0.141E-01    0.542E-01
RMM:   4    -0.101140964707E+03    0.53003E-03   -0.22688E-04  6170   0.694E-02    0.194E-01
RMM:   5    -0.101140953316E+03    0.11392E-04   -0.20369E-04  5988   0.660E-02
  14 F= -.10114095E+03 E0= -.10114083E+03  d E =-.762036E-03  mag=     9.3831
       N       E                     dE             d eps       ncg     rms          rms(c)
DAV:   1    -0.101140845264E+03    0.11944E-03   -0.28514E-03 13800   0.273E-01    0.994E-02
RMM:   2    -0.101143842412E+03   -0.29971E-02   -0.16456E-03  9398   0.194E-01    0.973E-01
RMM:   3    -0.101141567862E+03    0.22746E-02   -0.84705E-04  9010   0.138E-01    0.596E-01
RMM:   4    -0.101140839207E+03    0.72865E-03   -0.23811E-04  6436   0.696E-02    0.855E-02
RMM:   5    -0.101140839180E+03    0.27125E-07   -0.59951E-05  5411   0.353E-02
  15 F= -.10114084E+03 E0= -.10114074E+03  d E =0.114135E-03  mag=     9.3826
       N       E                     dE             d eps       ncg     rms          rms(c)
DAV:   1    -0.101140435456E+03    0.40375E-03   -0.19975E-01  9720   0.125E+00    0.144E-01
RMM:   2    -0.101146605661E+03   -0.61702E-02   -0.41251E-03  9601   0.312E-01    0.143E+00
RMM:   3    -0.101141683217E+03    0.49224E-02   -0.14397E-03  9312   0.178E-01    0.729E-01
RMM:   4    -0.101140653154E+03    0.10301E-02   -0.45876E-04  8311   0.969E-02    0.132E-01
RMM:   5    -0.101140749080E+03   -0.95926E-04   -0.21493E-04  6037   0.682E-02
  16 F= -.10114075E+03 E0= -.10114066E+03  d E =0.901005E-04  mag=     9.3817
       N       E                     dE             d eps       ncg     rms          rms(c)
DAV:   1    -0.101139735923E+03    0.91723E-03   -0.12340E-01  9984   0.103E+00    0.129E-01
RMM:   2    -0.101146369876E+03   -0.66340E-02   -0.33240E-03  9607   0.272E-01    0.159E+00
RMM:   3    -0.101140391652E+03    0.59782E-02   -0.10625E-03  9205   0.155E-01    0.498E-01
RMM:   4    -0.101139908036E+03    0.48362E-03   -0.47072E-04  8347   0.989E-02    0.146E-01
RMM:   5    -0.101139946311E+03   -0.38275E-04   -0.19916E-04  5953   0.654E-02
  17 F= -.10113995E+03 E0= -.10113982E+03  d E =0.802768E-03  mag=     9.3810
       N       E                     dE             d eps       ncg     rms          rms(c)
DAV:   1    -0.101138783573E+03    0.11245E-02   -0.14310E-01  9984   0.109E+00    0.139E-01
RMM:   2    -0.101143470227E+03   -0.46867E-02   -0.37833E-03  9612   0.287E-01    0.127E+00
RMM:   3    -0.101139865786E+03    0.36044E-02   -0.11601E-03  9369   0.161E-01    0.671E-01
RMM:   4    -0.101138948693E+03    0.91709E-03   -0.46037E-04  8283   0.969E-02    0.146E-01
RMM:   5    -0.101139023210E+03   -0.74517E-04   -0.22456E-04  6131   0.697E-02
  18 F= -.10113902E+03 E0= -.10113891E+03  d E =0.923102E-03  mag=     9.3806
       N       E                     dE             d eps       ncg     rms          rms(c)
DAV:   1    -0.101138952763E+03   -0.40707E-05   -0.95302E-03 10800   0.394E-01    0.111E-01
RMM:   2    -0.101141820817E+03   -0.28681E-02   -0.21042E-03  9496   0.221E-01    0.919E-01
RMM:   3    -0.101139700858E+03    0.21200E-02   -0.10734E-03  9228   0.155E-01    0.590E-01
RMM:   4    -0.101138972154E+03    0.72870E-03   -0.21264E-04  6139   0.656E-02    0.128E-01
RMM:   5    -0.101138929119E+03    0.43035E-04   -0.92536E-05  5474   0.440E-02
  19 F= -.10113893E+03 E0= -.10113882E+03  d E =0.940902E-04  mag=     9.3804
       N       E                     dE             d eps       ncg     rms          rms(c)
DAV:   1    -0.101138841419E+03    0.13073E-03   -0.65037E-02  9888   0.735E-01    0.866E-02
RMM:   2    -0.101140310211E+03   -0.14688E-02   -0.17884E-03  9589   0.193E-01    0.727E-01
RMM:   3    -0.101139398677E+03    0.91153E-03   -0.49479E-04  8323   0.106E-01    0.436E-01
RMM:   4    -0.101138961219E+03    0.43746E-03   -0.18876E-04  5795   0.637E-02    0.107E-01
RMM:   5    -0.101138964501E+03   -0.32819E-05   -0.96697E-05  5427   0.471E-02
  20 F= -.10113896E+03 E0= -.10113886E+03  d E =-.353816E-04  mag=     9.3802
       N       E                     dE             d eps       ncg     rms          rms(c)
DAV:   1    -0.101138168832E+03    0.79239E-03   -0.55770E-01  9600   0.210E+00    0.191E-01
RMM:   2    -0.101148265227E+03   -0.10096E-01   -0.14555E-02  9633   0.467E-01    0.176E+00
RMM:   3    -0.101140705077E+03    0.75601E-02   -0.23440E-03  9616   0.224E-01    0.868E-01
RMM:   4    -0.101139272328E+03    0.14327E-02   -0.79197E-04  9198   0.127E-01    0.209E-01
RMM:   5    -0.101139389629E+03   -0.11730E-03   -0.32633E-04  7248   0.828E-02    0.243E-01
RMM:   6    -0.101139178349E+03    0.21128E-03   -0.19696E-04  5747   0.729E-02    0.727E-02
RMM:   7    -0.101139214843E+03   -0.36494E-04   -0.97896E-05  5384   0.469E-02
  21 F= -.10113921E+03 E0= -.10113913E+03  d E =-.250342E-03  mag=     9.3804
       N       E                     dE             d eps       ncg     rms          rms(c)
DAV:   1    -0.101139665422E+03   -0.48707E-03   -0.46498E-02  9708   0.643E-01    0.104E-01
RMM:   2    -0.101142374785E+03   -0.27094E-02   -0.20844E-03  9596   0.214E-01    0.960E-01
RMM:   3    -0.101140425772E+03    0.19490E-02   -0.79319E-04  9058   0.134E-01    0.572E-01
RMM:   4    -0.101139720594E+03    0.70518E-03   -0.26173E-04  6728   0.724E-02    0.763E-02
RMM:   5    -0.101139743503E+03   -0.22909E-04   -0.73025E-05  5459   0.411E-02
  22 F= -.10113974E+03 E0= -.10113966E+03  d E =-.528660E-03  mag=     9.3808
       N       E                     dE             d eps       ncg     rms          rms(c)
DAV:   1    -0.101139920379E+03   -0.19979E-03   -0.66656E-02  9600   0.696E-01    0.561E-02
RMM:   2    -0.101140353728E+03   -0.43335E-03   -0.20654E-03  9228   0.150E-01    0.272E-01
RMM:   3    -0.101140155383E+03    0.19835E-03   -0.21264E-04  5846   0.675E-02    0.189E-01
RMM:   4    -0.101140109025E+03    0.46357E-04   -0.51752E-05  5388   0.337E-02
  23 F= -.10114011E+03 E0= -.10113997E+03  d E =-.365522E-03  mag=     9.3809
       N       E                     dE             d eps       ncg     rms          rms(c)
DAV:   1    -0.101140779365E+03   -0.62398E-03   -0.12418E-01  9600   0.954E-01    0.915E-02
RMM:   2    -0.101142934664E+03   -0.21553E-02   -0.37721E-03  9613   0.219E-01    0.875E-01
RMM:   3    -0.101141346678E+03    0.15880E-02   -0.46301E-04  7978   0.985E-02    0.341E-01
RMM:   4    -0.101141075677E+03    0.27100E-03   -0.23795E-04  6354   0.718E-02    0.126E-01
RMM:   5    -0.101141074474E+03    0.12032E-05   -0.10577E-04  5472   0.492E-02
  24 F= -.10114107E+03 E0= -.10114098E+03  d E =-.965449E-03  mag=     9.3810
       N       E                     dE             d eps       ncg     rms          rms(c)
DAV:   1    -0.101138619604E+03    0.24561E-02   -0.33172E-01  9600   0.160E+00    0.128E-01
RMM:   2    -0.101142007345E+03   -0.33877E-02   -0.91424E-03  9656   0.335E-01    0.960E-01
RMM:   3    -0.101140028097E+03    0.19792E-02   -0.10877E-03  9413   0.148E-01    0.581E-01
RMM:   4    -0.101139384990E+03    0.64311E-03   -0.37404E-04  7713   0.884E-02    0.174E-01
RMM:   5    -0.101139471353E+03   -0.86363E-04   -0.17359E-04  5726   0.644E-02
  25 F= -.10113947E+03 E0= -.10113937E+03  d E =0.160312E-02  mag=     9.3812
       N       E                     dE             d eps       ncg     rms          rms(c)
DAV:   1    -0.101139696811E+03   -0.31182E-03   -0.19719E-01  9648   0.127E+00    0.103E-01
RMM:   2    -0.101143544782E+03   -0.38480E-02   -0.59161E-03  9609   0.278E-01    0.112E+00
RMM:   3    -0.101140425576E+03    0.31192E-02   -0.70480E-04  9056   0.122E-01    0.366E-01
RMM:   4    -0.101140182728E+03    0.24285E-03   -0.31646E-04  7083   0.838E-02    0.146E-01
RMM:   5    -0.101140207061E+03   -0.24334E-04   -0.15749E-04  5524   0.596E-02
  26 F= -.10114021E+03 E0= -.10114012E+03  d E =-.735708E-03  mag=     9.3821
       N       E                     dE             d eps       ncg     rms          rms(c)
DAV:   1    -0.101139471178E+03    0.71155E-03   -0.10219E-01  9648   0.899E-01    0.764E-02
RMM:   2    -0.101140514268E+03   -0.10431E-02   -0.35065E-03  9574   0.203E-01    0.482E-01
RMM:   3    -0.101140044884E+03    0.46938E-03   -0.45557E-04  7972   0.974E-02    0.390E-01
RMM:   4    -0.101139732270E+03    0.31261E-03   -0.12399E-04  5596   0.515E-02    0.826E-02
RMM:   5    -0.101139760281E+03   -0.28011E-04   -0.61315E-05  5474   0.393E-02
  27 F= -.10113976E+03 E0= -.10113966E+03  d E =0.446780E-03  mag=     9.3821
       N       E                     dE             d eps       ncg     rms          rms(c)
DAV:   1    -0.101140372307E+03   -0.64004E-03   -0.14811E-01  9600   0.104E+00    0.736E-02
RMM:   2    -0.101141276138E+03   -0.90383E-03   -0.42674E-03  9610   0.205E-01    0.437E-01
RMM:   3    -0.101140865044E+03    0.41109E-03   -0.26047E-04  6079   0.696E-02    0.260E-01
RMM:   4    -0.101140760114E+03    0.10493E-03   -0.18687E-04  5705   0.652E-02    0.119E-01
RMM:   5    -0.101140747217E+03    0.12897E-04   -0.83775E-05  5395   0.482E-02
  28 F= -.10114075E+03 E0= -.10114065E+03  d E =-.986935E-03  mag=     9.3821
       N       E                     dE             d eps       ncg     rms          rms(c)
DAV:   1    -0.101140967856E+03   -0.20774E-03   -0.89994E-01  9600   0.250E+00    0.166E-01
RMM:   2    -0.101145109112E+03   -0.41413E-02   -0.25072E-02  9672   0.448E-01    0.906E-01
RMM:   3    -0.101143245346E+03    0.18638E-02   -0.13868E-03  9283   0.140E-01    0.356E-01
RMM:   4    -0.101143389256E+03   -0.14391E-03   -0.61089E-04  8591   0.109E-01    0.366E-01
RMM:   5    -0.101142978088E+03    0.41117E-03   -0.34393E-04  7402   0.897E-02    0.916E-02
RMM:   6    -0.101143061204E+03   -0.83115E-04   -0.16590E-04  5642   0.607E-02
  29 F= -.10114306E+03 E0= -.10114296E+03  d E =-.231399E-02  mag=     9.3828
       N       E                     dE             d eps       ncg     rms          rms(c)
DAV:   1    -0.101137886784E+03    0.50913E-02   -0.10703E+00  9600   0.270E+00    0.186E-01
RMM:   2    -0.101143406353E+03   -0.55196E-02   -0.32529E-02  9653   0.512E-01    0.935E-01
RMM:   3    -0.101141666103E+03    0.17403E-02   -0.23112E-03  9598   0.192E-01    0.724E-01
RMM:   4    -0.101141011075E+03    0.65503E-03   -0.75750E-04  9118   0.121E-01    0.412E-01
RMM:   5    -0.101140714616E+03    0.29646E-03   -0.43729E-04  8105   0.101E-01    0.230E-01
RMM:   6    -0.101140502504E+03    0.21211E-03   -0.21515E-04  6066   0.731E-02    0.105E-01
RMM:   7    -0.101140509569E+03   -0.70654E-05   -0.12311E-04  5417   0.517E-02
  30 F= -.10114051E+03 E0= -.10114042E+03  d E =0.255163E-02  mag=     9.3827
       N       E                     dE             d eps       ncg     rms          rms(c)
DAV:   1    -0.101141133126E+03   -0.63062E-03   -0.61256E-01  9600   0.205E+00    0.152E-01
RMM:   2    -0.101144557520E+03   -0.34244E-02   -0.18819E-02  9664   0.409E-01    0.753E-01
RMM:   3    -0.101143384139E+03    0.11734E-02   -0.16539E-03  9585   0.172E-01    0.591E-01
RMM:   4    -0.101142832475E+03    0.55166E-03   -0.37276E-04  7408   0.857E-02    0.294E-01
RMM:   5    -0.101142727539E+03    0.10494E-03   -0.17865E-04  5741   0.678E-02    0.175E-01
RMM:   6    -0.101142627713E+03    0.99826E-04   -0.82398E-05  5429   0.480E-02
  31 F= -.10114263E+03 E0= -.10114253E+03  d E =-.211814E-02  mag=     9.3826
       N       E                     dE             d eps       ncg     rms          rms(c)
DAV:   1    -0.101142690184E+03    0.37355E-04   -0.28826E-03 11136   0.238E-01    0.119E-01
RMM:   2    -0.101145633641E+03   -0.29435E-02   -0.23205E-03  9533   0.226E-01    0.952E-01
RMM:   3    -0.101142711220E+03    0.29224E-02   -0.16088E-03  9370   0.188E-01    0.169E-01
RMM:   4    -0.101142684060E+03    0.27160E-04   -0.73364E-05  5497   0.378E-02
  32 F= -.10114268E+03 E0= -.10114255E+03  d E =-.563479E-04  mag=     9.3824
       N       E                     dE             d eps       ncg     rms          rms(c)
DAV:   1    -0.101142986720E+03   -0.27550E-03   -0.38601E-02  9624   0.533E-01    0.759E-02
RMM:   2    -0.101146586973E+03   -0.36003E-02   -0.17598E-03  9535   0.163E-01    0.121E+00
RMM:   3    -0.101143167220E+03    0.34198E-02   -0.49710E-04  8412   0.106E-01    0.247E-01
RMM:   4    -0.101143073356E+03    0.93863E-04   -0.14267E-04  5709   0.569E-02
  33 F= -.10114307E+03 E0= -.10114298E+03  d E =-.389296E-03  mag=     9.3824
       N       E                     dE             d eps       ncg     rms          rms(c)
DAV:   1    -0.101144262117E+03   -0.10949E-02   -0.43406E-01  9600   0.179E+00    0.160E-01
RMM:   2    -0.101148115969E+03   -0.38539E-02   -0.99244E-03  9624   0.388E-01    0.110E+00
RMM:   3    -0.101145879356E+03    0.22366E-02   -0.11763E-03  9515   0.157E-01    0.634E-01
RMM:   4    -0.101145036154E+03    0.84320E-03   -0.66853E-04  8992   0.116E-01    0.195E-01
RMM:   5    -0.101145201409E+03   -0.16525E-03   -0.27530E-04  6653   0.804E-02    0.275E-01
RMM:   6    -0.101144952574E+03    0.24883E-03   -0.17551E-04  5686   0.693E-02    0.845E-02
RMM:   7    -0.101145015949E+03   -0.63375E-04   -0.13354E-04  5489   0.547E-02
  34 F= -.10114502E+03 E0= -.10114492E+03  d E =-.194259E-02  mag=     9.3808
       N       E                     dE             d eps       ncg     rms          rms(c)
DAV:   1    -0.101140059744E+03    0.48928E-02   -0.11023E+00  9600   0.284E+00    0.214E-01
RMM:   2    -0.101146251548E+03   -0.61918E-02   -0.21702E-02  9619   0.557E-01    0.129E+00
RMM:   3    -0.101142656828E+03    0.35947E-02   -0.18872E-03  9637   0.188E-01    0.647E-01
RMM:   4    -0.101142423453E+03    0.23337E-03   -0.11006E-03  9460   0.150E-01    0.443E-01
RMM:   5    -0.101142053476E+03    0.36998E-03   -0.46280E-04  8330   0.101E-01    0.282E-01
RMM:   6    -0.101141830035E+03    0.22344E-03   -0.29348E-04  6952   0.837E-02    0.131E-01
RMM:   7    -0.101141865564E+03   -0.35529E-04   -0.19320E-04  5805   0.654E-02
  35 F= -.10114187E+03 E0= -.10114175E+03  d E =0.315038E-02  mag=     9.3825
       N       E                     dE             d eps       ncg     rms          rms(c)
DAV:   1    -0.101142760509E+03   -0.93047E-03   -0.13261E-01  9660   0.104E+00    0.123E-01
RMM:   2    -0.101145188005E+03   -0.24275E-02   -0.44346E-03  9603   0.288E-01    0.842E-01
RMM:   3    -0.101143312690E+03    0.18753E-02   -0.15202E-03  9484   0.177E-01    0.403E-01
RMM:   4    -0.101143017580E+03    0.29511E-03   -0.12167E-04  5606   0.501E-02    0.158E-01
RMM:   5    -0.101142988339E+03    0.29241E-04   -0.10557E-04  5508   0.518E-02
  36 F= -.10114299E+03 E0= -.10114290E+03  d E =-.112278E-02  mag=     9.3829
       N       E                     dE             d eps       ncg     rms          rms(c)
DAV:   1    -0.101142960952E+03    0.56628E-04   -0.10434E-03 10368   0.182E-01    0.332E-02
RMM:   2    -0.101143111748E+03   -0.15080E-03   -0.16464E-04  5578   0.656E-02    0.196E-01
RMM:   3    -0.101142974962E+03    0.13679E-03   -0.11786E-04  5412   0.555E-02    0.765E-02
RMM:   4    -0.101142968728E+03    0.62345E-05   -0.99632E-06  5252   0.139E-02
  37 F= -.10114297E+03 E0= -.10114285E+03  d E =0.196114E-04  mag=     9.3831
       N       E                     dE             d eps       ncg     rms          rms(c)
DAV:   1    -0.101137262743E+03    0.57122E-02   -0.17047E+00  9600   0.314E+00    0.241E-01
RMM:   2    -0.101143755718E+03   -0.64930E-02   -0.43086E-02  9620   0.528E-01    0.107E+00
RMM:   3    -0.101141580407E+03    0.21753E-02   -0.25409E-03  9518   0.186E-01    0.725E-01
RMM:   4    -0.101141146362E+03    0.43405E-03   -0.14339E-03  9595   0.165E-01    0.490E-01
RMM:   5    -0.101140764007E+03    0.38236E-03   -0.69064E-04  9228   0.120E-01    0.321E-01
RMM:   6    -0.101140430460E+03    0.33355E-03   -0.52210E-04  8705   0.109E-01    0.216E-01
RMM:   7    -0.101140512273E+03   -0.81813E-04   -0.49196E-04  8348   0.101E-01
  38 F= -.10114051E+03 E0= -.10114035E+03  d E =0.245645E-02  mag=     9.3904
       N       E                     dE             d eps       ncg     rms          rms(c)
DAV:   1    -0.101140668210E+03   -0.23775E-03   -0.10489E-01 10668   0.939E-01    0.147E-01
RMM:   2    -0.101144021358E+03   -0.33531E-02   -0.59634E-03  9639   0.321E-01    0.980E-01
RMM:   3    -0.101141016035E+03    0.30053E-02   -0.21462E-03  9554   0.210E-01    0.255E-01
RMM:   4    -0.101141000751E+03    0.15284E-04   -0.11444E-04  5609   0.476E-02
  39 F= -.10114100E+03 E0= -.10114080E+03  d E =-.488478E-03  mag=     9.3917
       N       E                     dE             d eps       ncg     rms          rms(c)
DAV:   1    -0.101141499623E+03   -0.48359E-03   -0.22912E-02 11460   0.468E-01    0.135E-01
RMM:   2    -0.101149040521E+03   -0.75409E-02   -0.39046E-03  9633   0.291E-01    0.157E+00
RMM:   3    -0.101142898248E+03    0.61423E-02   -0.14572E-03  9423   0.182E-01    0.756E-01
RMM:   4    -0.101141585376E+03    0.13129E-02   -0.64130E-04  8840   0.115E-01    0.138E-01
RMM:   5    -0.101141537168E+03    0.48208E-04   -0.96475E-05  5465   0.443E-02
  40 F= -.10114154E+03 E0= -.10114141E+03  d E =-.536417E-03  mag=     9.3930
       N       E                     dE             d eps       ncg     rms          rms(c)
DAV:   1    -0.101142163645E+03   -0.57827E-03   -0.42847E-02  9600   0.564E-01    0.682E-02
RMM:   2    -0.101142758280E+03   -0.59464E-03   -0.12971E-03  9480   0.153E-01    0.374E-01
RMM:   3    -0.101142321170E+03    0.43711E-03   -0.40731E-04  7866   0.954E-02    0.217E-01
RMM:   4    -0.101142233688E+03    0.87482E-04   -0.38580E-05  5413   0.285E-02
  41 F= -.10114223E+03 E0= -.10114214E+03  d E =-.696520E-03  mag=     9.3933
       N       E                     dE             d eps       ncg     rms          rms(c)
DAV:   1    -0.101142812076E+03   -0.49091E-03   -0.13443E+00  9600   0.305E+00    0.231E-01
RMM:   2    -0.101146458322E+03   -0.36462E-02   -0.29696E-02  9753   0.597E-01    0.532E-01
RMM:   3    -0.101145917519E+03    0.54080E-03   -0.28716E-03  9635   0.231E-01    0.527E-01
RMM:   4    -0.101146905638E+03   -0.98812E-03   -0.63656E-04  9016   0.113E-01    0.839E-01
RMM:   5    -0.101145603047E+03    0.13026E-02   -0.68155E-04  8873   0.120E-01    0.335E-01
RMM:   6    -0.101145289667E+03    0.31338E-03   -0.48161E-04  8328   0.103E-01    0.162E-01
RMM:   7    -0.101145539225E+03   -0.24956E-03   -0.35910E-04  7544   0.863E-02    0.293E-01
RMM:   8    -0.101145322243E+03    0.21698E-03   -0.27569E-04  6763   0.825E-02    0.151E-01
RMM:   9    -0.101145253475E+03    0.68767E-04   -0.14114E-04  5505   0.586E-02
  42 F= -.10114525E+03 E0= -.10114519E+03  d E =-.301979E-02  mag=     9.3874
       N       E                     dE             d eps       ncg     rms          rms(c)
DAV:   1    -0.101145746130E+03   -0.42389E-03   -0.82452E-02 10152   0.784E-01    0.978E-02
RMM:   2    -0.101147141867E+03   -0.13957E-02   -0.34073E-03  9588   0.222E-01    0.544E-01
RMM:   3    -0.101145989309E+03    0.11526E-02   -0.10012E-03  9410   0.146E-01    0.153E-01
RMM:   4    -0.101146021094E+03   -0.31785E-04   -0.71975E-05  5508   0.398E-02
  43 F= -.10114602E+03 E0= -.10114604E+03  d E =-.767619E-03  mag=     9.3865
       N       E                     dE             d eps       ncg     rms          rms(c)
DAV:   1    -0.101146239817E+03   -0.25051E-03   -0.43072E-02  9900   0.574E-01    0.110E-01
RMM:   2    -0.101150709443E+03   -0.44696E-02   -0.27754E-03  9627   0.225E-01    0.134E+00
RMM:   3    -0.101146995676E+03    0.37138E-02   -0.93008E-04  9114   0.143E-01    0.487E-01
RMM:   4    -0.101146345352E+03    0.65032E-03   -0.30973E-04  7180   0.815E-02    0.100E-01
RMM:   5    -0.101146338552E+03    0.68001E-05   -0.90433E-05  5412   0.438E-02
  44 F= -.10114634E+03 E0= -.10114629E+03  d E =-.317457E-03  mag=     9.3854
       N       E                     dE             d eps       ncg     rms          rms(c)
DAV:   1    -0.101146461041E+03   -0.11569E-03   -0.18876E-03 10332   0.200E-01    0.822E-02
RMM:   2    -0.101147894363E+03   -0.14333E-02   -0.11844E-03  9448   0.161E-01    0.650E-01
RMM:   3    -0.101146510542E+03    0.13838E-02   -0.78433E-04  8876   0.131E-01    0.168E-01
RMM:   4    -0.101146477035E+03    0.33507E-04   -0.36763E-05  5466   0.271E-02
  45 F= -.10114648E+03 E0= -.10114639E+03  d E =-.138484E-03  mag=     9.3849
       N       E                     dE             d eps       ncg     rms          rms(c)
DAV:   1    -0.101146954419E+03   -0.44388E-03   -0.70440E-02  9600   0.680E-01    0.628E-02
RMM:   2    -0.101147425636E+03   -0.47122E-03   -0.21600E-03  8923   0.136E-01    0.303E-01
RMM:   3    -0.101147173127E+03    0.25251E-03   -0.21286E-04  5910   0.663E-02    0.168E-01
RMM:   4    -0.101147168330E+03    0.47967E-05   -0.48128E-05  5370   0.326E-02
  46 F= -.10114717E+03 E0= -.10114708E+03  d E =-.691295E-03  mag=     9.3843
       N       E                     dE             d eps       ncg     rms          rms(c)
DAV:   1    -0.101146871299E+03    0.30183E-03   -0.14832E+00  9600   0.305E+00    0.248E-01
RMM:   2    -0.101152592677E+03   -0.57214E-02   -0.42537E-02  9677   0.556E-01    0.738E-01
RMM:   3    -0.101150709415E+03    0.18833E-02   -0.36085E-03  9645   0.244E-01    0.428E-01
RMM:   4    -0.101153135846E+03   -0.24264E-02   -0.84436E-04  9366   0.129E-01    0.116E+00
RMM:   5    -0.101150568720E+03    0.25671E-02   -0.59603E-04  8747   0.115E-01    0.381E-01
RMM:   6    -0.101150212012E+03    0.35671E-03   -0.44090E-04  8122   0.988E-02    0.156E-01
RMM:   7    -0.101150447478E+03   -0.23547E-03   -0.40345E-04  7933   0.904E-02    0.280E-01
RMM:   8    -0.101150227523E+03    0.21995E-03   -0.32036E-04  7296   0.879E-02    0.113E-01
RMM:   9    -0.101150232458E+03   -0.49343E-05   -0.16402E-04  5593   0.622E-02
  47 F= -.10115023E+03 E0= -.10115021E+03  d E =-.306413E-02  mag=     9.3830
       N       E                     dE             d eps       ncg     rms          rms(c)
DAV:   1    -0.101132060556E+03    0.18167E-01   -0.53955E+00  9600   0.579E+00    0.422E-01
RMM:   2    -0.101147697100E+03   -0.15637E-01   -0.15366E-01  9799   0.999E-01    0.631E-01
RMM:   3    -0.101155451872E+03   -0.77548E-02   -0.94643E-03  9664   0.356E-01    0.219E+00
RMM:   4    -0.101147104760E+03    0.83471E-02   -0.34804E-03  9645   0.265E-01    0.944E-01
RMM:   5    -0.101144660163E+03    0.24446E-02   -0.21775E-03  9568   0.217E-01    0.299E-01
RMM:   6    -0.101145215587E+03   -0.55542E-03   -0.12123E-03  9534   0.157E-01    0.470E-01
RMM:   7    -0.101144907808E+03    0.30778E-03   -0.85577E-04  9412   0.134E-01    0.346E-01
RMM:   8    -0.101144633885E+03    0.27392E-03   -0.81395E-04  9375   0.131E-01    0.244E-01
RMM:   9    -0.101144607915E+03    0.25970E-04   -0.48797E-04  8436   0.104E-01
  48 F= -.10114461E+03 E0= -.10114455E+03  d E =0.562454E-02  mag=     9.3839
       N       E                     dE             d eps       ncg     rms          rms(c)
DAV:   1    -0.101144622051E+03    0.11834E-04   -0.91880E-01  9648   0.243E+00    0.180E-01
RMM:   2    -0.101148047019E+03   -0.34250E-02   -0.26394E-02  9788   0.437E-01    0.545E-01
RMM:   3    -0.101147294773E+03    0.75225E-03   -0.21841E-03  9601   0.187E-01    0.500E-01
RMM:   4    -0.101147423405E+03   -0.12863E-03   -0.40199E-04  7382   0.874E-02    0.553E-01
RMM:   5    -0.101146797289E+03    0.62612E-03   -0.35979E-04  7702   0.923E-02    0.187E-01
RMM:   6    -0.101146711911E+03    0.85378E-04   -0.19441E-04  5865   0.691E-02
  49 F= -.10114671E+03 E0= -.10114666E+03  d E =-.210400E-02  mag=     9.3836
       N       E                     dE             d eps       ncg     rms          rms(c)
DAV:   1    -0.101140093934E+03    0.67034E-02   -0.16885E+00  9600   0.312E+00    0.344E-01
RMM:   2    -0.101162184540E+03   -0.22091E-01   -0.49846E-02  9613   0.738E-01    0.228E+00
RMM:   3    -0.101147796997E+03    0.14388E-01   -0.82675E-03  9655   0.417E-01    0.149E+00
RMM:   4    -0.101143444177E+03    0.43528E-02   -0.17961E-03  9636   0.186E-01    0.468E-01
RMM:   5    -0.101143513225E+03   -0.69048E-04   -0.14308E-03  9557   0.168E-01    0.418E-01
RMM:   6    -0.101143104386E+03    0.40884E-03   -0.81081E-04  9320   0.132E-01    0.292E-01
RMM:   7    -0.101142955207E+03    0.14918E-03   -0.57509E-04  8829   0.113E-01    0.209E-01
RMM:   8    -0.101143004270E+03   -0.49063E-04   -0.41077E-04  7976   0.935E-02
  50 F= -.10114300E+03 E0= -.10114287E+03  d E =0.370764E-02  mag=     9.3927
       N       E                     dE             d eps       ncg     rms          rms(c)
DAV:   1    -0.101143234886E+03   -0.27968E-03   -0.83658E-02 10344   0.866E-01    0.133E-01
RMM:   2    -0.101146146176E+03   -0.29113E-02   -0.46213E-03  9638   0.296E-01    0.923E-01
RMM:   3    -0.101143727255E+03    0.24189E-02   -0.17405E-03  9485   0.193E-01    0.387E-01
RMM:   4    -0.101143428620E+03    0.29864E-03   -0.10982E-04  5591   0.464E-02    0.138E-01
RMM:   5    -0.101143444933E+03   -0.16313E-04   -0.11505E-04  5522   0.509E-02
  51 F= -.10114344E+03 E0= -.10114332E+03  d E =-.440663E-03  mag=     9.3949
       N       E                     dE             d eps       ncg     rms          rms(c)
DAV:   1    -0.101143861413E+03   -0.43279E-03   -0.13764E-02 11064   0.366E-01    0.103E-01
RMM:   2    -0.101146363668E+03   -0.25023E-02   -0.22781E-03  9626   0.216E-01    0.826E-01
RMM:   3    -0.101143979220E+03    0.23844E-02   -0.12390E-03  9319   0.166E-01    0.185E-01
RMM:   4    -0.101143949727E+03    0.29493E-04   -0.10717E-04  5530   0.466E-02
  52 F= -.10114395E+03 E0= -.10114377E+03  d E =-.504794E-03  mag=     9.3959
       N       E                     dE             d eps       ncg     rms          rms(c)
DAV:   1    -0.101144518083E+03   -0.53886E-03   -0.50715E-02  9600   0.620E-01    0.700E-02
RMM:   2    -0.101145548426E+03   -0.10303E-02   -0.15961E-03  9468   0.152E-01    0.587E-01
RMM:   3    -0.101144810668E+03    0.73776E-03   -0.23824E-04  6066   0.742E-02    0.294E-01
RMM:   4    -0.101144622888E+03    0.18778E-03   -0.15071E-04  5556   0.575E-02    0.851E-02
RMM:   5    -0.101144649976E+03   -0.27088E-04   -0.63908E-05  5396   0.387E-02
  53 F= -.10114465E+03 E0= -.10114456E+03  d E =-.700249E-03  mag=     9.3967
       N       E                     dE             d eps       ncg     rms          rms(c)
DAV:   1    -0.101142333969E+03    0.22889E-02   -0.41530E+00  9600   0.535E+00    0.422E-01
RMM:   2    -0.101158528595E+03   -0.16195E-01   -0.10102E-01  9816   0.975E-01    0.165E+00
RMM:   3    -0.101154620081E+03    0.39085E-02   -0.70177E-03  9689   0.337E-01    0.139E+00
RMM:   4    -0.101154437508E+03    0.18257E-03   -0.42831E-03  9680   0.296E-01    0.101E+00
RMM:   5    -0.101151556016E+03    0.28815E-02   -0.22045E-03  9591   0.223E-01    0.538E-01
RMM:   6    -0.101150765081E+03    0.79094E-03   -0.11779E-03  9387   0.158E-01    0.275E-01
RMM:   7    -0.101151366360E+03   -0.60128E-03   -0.11464E-03  9547   0.150E-01    0.436E-01
RMM:   8    -0.101150665189E+03    0.70117E-03   -0.89348E-04  9343   0.140E-01    0.213E-01
RMM:   9    -0.101150622936E+03    0.42253E-04   -0.33975E-04  7422   0.850E-02
  54 F= -.10115062E+03 E0= -.10115063E+03  d E =-.597296E-02  mag=     9.3917
       N       E                     dE             d eps       ncg     rms          rms(c)
DAV:   1    -0.101151426522E+03   -0.76133E-03   -0.76933E-01  9816   0.230E+00    0.190E-01
RMM:   2    -0.101155542538E+03   -0.41160E-02   -0.21442E-02  9667   0.448E-01    0.827E-01
RMM:   3    -0.101154564106E+03    0.97843E-03   -0.19350E-03  9625   0.186E-01    0.803E-01
RMM:   4    -0.101153391443E+03    0.11727E-02   -0.69490E-04  9155   0.118E-01    0.313E-01
RMM:   5    -0.101153546281E+03   -0.15484E-03   -0.46603E-04  8397   0.101E-01    0.337E-01
RMM:   6    -0.101153158277E+03    0.38800E-03   -0.28389E-04  6817   0.843E-02    0.118E-01
RMM:   7    -0.101153196960E+03   -0.38683E-04   -0.15976E-04  5480   0.599E-02
  55 F= -.10115320E+03 E0= -.10115321E+03  d E =-.257402E-02  mag=     9.3891
       N       E                     dE             d eps       ncg     rms          rms(c)
DAV:   1    -0.101153187994E+03   -0.29717E-04   -0.20929E+00  9600   0.376E+00    0.301E-01
RMM:   2    -0.101168673539E+03   -0.15486E-01   -0.59363E-02  9632   0.722E-01    0.188E+00
RMM:   3    -0.101160488159E+03    0.81854E-02   -0.47842E-03  9663   0.285E-01    0.111E+00
RMM:   4    -0.101158416743E+03    0.20714E-02   -0.22473E-03  9608   0.213E-01    0.467E-01
RMM:   5    -0.101158648454E+03   -0.23171E-03   -0.13185E-03  9492   0.165E-01    0.478E-01
RMM:   6    -0.101157910385E+03    0.73807E-03   -0.75467E-04  9175   0.131E-01    0.239E-01
RMM:   7    -0.101157913701E+03   -0.33161E-05   -0.46765E-04  8166   0.992E-02
  56 F= -.10115791E+03 E0= -.10115797E+03  d E =-.471674E-02  mag=     9.3890
       N       E                     dE             d eps       ncg     rms          rms(c)
DAV:   1    -0.101151169399E+03    0.67410E-02   -0.68860E+00  9600   0.680E+00    0.559E-01
RMM:   2    -0.101193399670E+03   -0.42230E-01   -0.19737E-01  9631   0.131E+00    0.283E+00
RMM:   3    -0.101177775240E+03    0.15624E-01   -0.19164E-02  9670   0.581E-01    0.227E+00
RMM:   4    -0.101168439282E+03    0.93360E-02   -0.54542E-03  9724   0.324E-01    0.882E-01
RMM:   5    -0.101169976421E+03   -0.15371E-02   -0.40074E-03  9605   0.289E-01    0.104E+00
RMM:   6    -0.101166451965E+03    0.35245E-02   -0.23843E-03  9593   0.232E-01    0.337E-01
RMM:   7    -0.101166698584E+03   -0.24662E-03   -0.15045E-03  9559   0.176E-01    0.421E-01
RMM:   8    -0.101167269202E+03   -0.57062E-03   -0.16220E-03  9594   0.181E-01    0.516E-01
RMM:   9    -0.101166122820E+03    0.11464E-02   -0.11721E-03  9423   0.160E-01    0.133E-01
RMM:  10    -0.101166207001E+03   -0.84181E-04   -0.28535E-04  6851   0.787E-02
  57 F= -.10116621E+03 E0= -.10116631E+03  d E =-.829330E-02  mag=     9.3913
       N       E                     dE             d eps       ncg     rms          rms(c)
DAV:   1    -0.101167246289E+03   -0.11235E-02   -0.66735E-01  9696   0.214E+00    0.151E-01
RMM:   2    -0.101169653625E+03   -0.24073E-02   -0.19042E-02  9664   0.375E-01    0.432E-01
RMM:   3    -0.101169540480E+03    0.11314E-03   -0.12050E-03  9094   0.130E-01    0.564E-01
RMM:   4    -0.101169305765E+03    0.23472E-03   -0.47066E-04  8119   0.974E-02    0.405E-01
RMM:   5    -0.101168972220E+03    0.33355E-03   -0.29878E-04  6987   0.854E-02    0.195E-01
RMM:   6    -0.101168866081E+03    0.10614E-03   -0.13603E-04  5490   0.575E-02    0.831E-02
RMM:   7    -0.101168950479E+03   -0.84398E-04   -0.11042E-04  5484   0.486E-02
  58 F= -.10116895E+03 E0= -.10116904E+03  d E =-.274348E-02  mag=     9.3928
       N       E                     dE             d eps       ncg     rms          rms(c)
DAV:   1    -0.101166957623E+03    0.19085E-02   -0.18721E-01  9672   0.116E+00    0.923E-02
RMM:   2    -0.101168090244E+03   -0.11326E-02   -0.59332E-03  9615   0.234E-01    0.425E-01
RMM:   3    -0.101167481818E+03    0.60843E-03   -0.73720E-04  8792   0.117E-01    0.150E-01
RMM:   4    -0.101167710885E+03   -0.22907E-03   -0.96774E-05  5573   0.456E-02    0.363E-01
RMM:   5    -0.101167460340E+03    0.25054E-03   -0.81398E-05  5491   0.466E-02    0.897E-02
RMM:   6    -0.101167441008E+03    0.19332E-04   -0.39676E-05  5341   0.326E-02
  59 F= -.10116744E+03 E0= -.10116752E+03  d E =0.150947E-02  mag=     9.3928
       N       E                     dE             d eps       ncg     rms          rms(c)
DAV:   1    -0.101167171396E+03    0.28894E-03   -0.15705E-02 10332   0.323E-01    0.593E-02
RMM:   2    -0.101167699024E+03   -0.52763E-03   -0.82910E-04  8987   0.122E-01    0.372E-01
RMM:   3    -0.101167245133E+03    0.45389E-03   -0.33213E-04  7398   0.874E-02    0.141E-01
RMM:   4    -0.101167223186E+03    0.21947E-04   -0.28675E-05  5360   0.242E-02
  60 F= -.10116722E+03 E0= -.10116733E+03  d E =0.217823E-03  mag=     9.3929
       N       E                     dE             d eps       ncg     rms          rms(c)
DAV:   1    -0.101167964345E+03   -0.71921E-03   -0.78224E-02  9672   0.728E-01    0.690E-02
RMM:   2    -0.101169438256E+03   -0.14739E-02   -0.25925E-03  9510   0.172E-01    0.638E-01
RMM:   3    -0.101168419621E+03    0.10186E-02   -0.34240E-04  7051   0.865E-02    0.350E-01
RMM:   4    -0.101168171659E+03    0.24796E-03   -0.13737E-04  5643   0.556E-02    0.882E-02
RMM:   5    -0.101168175890E+03   -0.42312E-05   -0.66949E-05  5333   0.384E-02
  61 F= -.10116818E+03 E0= -.10116826E+03  d E =-.952704E-03  mag=     9.3931
       N       E                     dE             d eps       ncg     rms          rms(c)
DAV:   1    -0.101168767390E+03   -0.59573E-03   -0.39624E-02  9852   0.542E-01    0.524E-02
RMM:   2    -0.101169182699E+03   -0.41531E-03   -0.12763E-03  8885   0.123E-01    0.322E-01
RMM:   3    -0.101168973992E+03    0.20871E-03   -0.15268E-04  5615   0.596E-02    0.233E-01
RMM:   4    -0.101168860390E+03    0.11360E-03   -0.58700E-05  5380   0.353E-02    0.651E-02
RMM:   5    -0.101168870415E+03   -0.10024E-04   -0.39044E-05  5280   0.299E-02
  62 F= -.10116887E+03 E0= -.10116894E+03  d E =-.694524E-03  mag=     9.3935
       N       E                     dE             d eps       ncg     rms          rms(c)
DAV:   1    -0.101168523529E+03    0.33686E-03   -0.77398E-03 10032   0.263E-01    0.483E-02
RMM:   2    -0.101169203042E+03   -0.67951E-03   -0.57375E-04  8530   0.104E-01    0.423E-01
RMM:   3    -0.101168600894E+03    0.60215E-03   -0.25825E-04  6463   0.809E-02    0.170E-01
RMM:   4    -0.101168548893E+03    0.52001E-04   -0.27696E-05  5416   0.236E-02
  63 F= -.10116855E+03 E0= -.10116865E+03  d E =0.321522E-03  mag=     9.3936
       N       E                     dE             d eps       ncg     rms          rms(c)
DAV:   1    -0.101169633743E+03   -0.10328E-02   -0.15730E-01  9600   0.102E+00    0.759E-02
RMM:   2    -0.101170389779E+03   -0.75604E-03   -0.44547E-03  9429   0.191E-01    0.353E-01
RMM:   3    -0.101170160225E+03    0.22955E-03   -0.29960E-04  6235   0.723E-02    0.284E-01
RMM:   4    -0.101170050634E+03    0.10959E-03   -0.13064E-04  5542   0.535E-02    0.146E-01
RMM:   5    -0.101170043746E+03    0.68878E-05   -0.78116E-05  5410   0.453E-02
  64 F= -.10117004E+03 E0= -.10117011E+03  d E =-.149485E-02  mag=     9.3940
       N       E                     dE             d eps       ncg     rms          rms(c)
DAV:   1    -0.101171561745E+03   -0.15111E-02   -0.72154E-01  9600   0.221E+00    0.163E-01
RMM:   2    -0.101173912305E+03   -0.23506E-02   -0.19939E-02  9644   0.387E-01    0.414E-01
RMM:   3    -0.101173797808E+03    0.11450E-03   -0.13978E-03  9464   0.146E-01    0.551E-01
RMM:   4    -0.101173782574E+03    0.15234E-04   -0.40396E-04  7710   0.896E-02
  65 F= -.10117378E+03 E0= -.10117396E+03  d E =-.373883E-02  mag=     9.3948
       N       E                     dE             d eps       ncg     rms          rms(c)
DAV:   1    -0.101167936287E+03    0.58615E-02   -0.78737E-01  9600   0.237E+00    0.228E-01
RMM:   2    -0.101180821757E+03   -0.12885E-01   -0.28169E-02  9610   0.572E-01    0.173E+00
RMM:   3    -0.101172252025E+03    0.85697E-02   -0.45554E-03  9643   0.309E-01    0.105E+00
RMM:   4    -0.101170197866E+03    0.20542E-02   -0.93637E-04  9369   0.136E-01    0.358E-01
RMM:   5    -0.101170095473E+03    0.10239E-03   -0.67484E-04  8909   0.116E-01    0.242E-01
RMM:   6    -0.101169922570E+03    0.17290E-03   -0.24310E-04  6446   0.769E-02    0.142E-01
RMM:   7    -0.101169835389E+03    0.87181E-04   -0.10410E-04  5377   0.523E-02
  66 F= -.10116984E+03 E0= -.10116992E+03  d E =0.394719E-02  mag=     9.3951
       N       E                     dE             d eps       ncg     rms          rms(c)
DAV:   1    -0.101168930780E+03    0.99179E-03   -0.51849E-02  9624   0.617E-01    0.123E-01
RMM:   2    -0.101171332996E+03   -0.24022E-02   -0.34434E-03  9600   0.251E-01    0.830E-01
RMM:   3    -0.101169072206E+03    0.22608E-02   -0.16662E-03  9455   0.187E-01    0.214E-01
RMM:   4    -0.101169032377E+03    0.39829E-04   -0.60956E-05  5486   0.346E-02
  67 F= -.10116903E+03 E0= -.10116907E+03  d E =0.803012E-03  mag=     9.3950
       N       E                     dE             d eps       ncg     rms          rms(c)
DAV:   1    -0.101170488359E+03   -0.14162E-02   -0.71167E-01  9600   0.216E+00    0.166E-01
RMM:   2    -0.101176491889E+03   -0.60035E-02   -0.21329E-02  9619   0.425E-01    0.114E+00
RMM:   3    -0.101173125802E+03    0.33661E-02   -0.18536E-03  9614   0.181E-01    0.678E-01
RMM:   4    -0.101172335471E+03    0.79033E-03   -0.62046E-04  8840   0.112E-01    0.253E-01
RMM:   5    -0.101172397099E+03   -0.61629E-04   -0.28048E-04  6712   0.785E-02
  68 F= -.10117240E+03 E0= -.10117248E+03  d E =-.336472E-02  mag=     9.3954
       N       E                     dE             d eps       ncg     rms          rms(c)
DAV:   1    -0.101163142988E+03    0.91925E-02   -0.17127E+00  9600   0.335E+00    0.214E-01
RMM:   2    -0.101168421501E+03   -0.52785E-02   -0.49779E-02  9671   0.593E-01    0.384E-01
RMM:   3    -0.101168166013E+03    0.25549E-03   -0.36137E-03  9653   0.233E-01    0.541E-01
RMM:   4    -0.101169391004E+03   -0.12250E-02   -0.80100E-04  9008   0.127E-01    0.970E-01
RMM:   5    -0.101167365186E+03    0.20258E-02   -0.41399E-04  7943   0.971E-02    0.170E-01
RMM:   6    -0.101167340199E+03    0.24987E-04   -0.25524E-04  6474   0.748E-02
  69 F= -.10116734E+03 E0= -.10116740E+03  d E =0.505690E-02  mag=     9.3948
       N       E                     dE             d eps       ncg     rms          rms(c)
DAV:   1    -0.101163860632E+03    0.35046E-02   -0.48106E-01  9624   0.180E+00    0.246E-01
RMM:   2    -0.101174615994E+03   -0.10755E-01   -0.19200E-02  9619   0.523E-01    0.164E+00
RMM:   3    -0.101165065175E+03    0.95508E-02   -0.55805E-03  9636   0.351E-01    0.300E-01
RMM:   4    -0.101165035181E+03    0.29994E-04   -0.69798E-04  9171   0.117E-01
  70 F= -.10116504E+03 E0= -.10116523E+03  d E =0.230502E-02  mag=     9.3942
       N       E                     dE             d eps       ncg     rms          rms(c)
DAV:   1    -0.101165785764E+03   -0.72059E-03   -0.18306E+00  9600   0.348E+00    0.514E-01
RMM:   2    -0.101411857450E+03   -0.24607E+00   -0.81132E-02  9608   0.110E+00    0.100E+01
RMM:   3    -0.101168511156E+03    0.24335E+00   -0.31377E-02  9650   0.840E-01    0.681E-01
RMM:   4    -0.101170531345E+03   -0.20202E-02   -0.54413E-03  9644   0.343E-01    0.570E-01
RMM:   5    -0.101171325205E+03   -0.79386E-03   -0.18544E-03  9555   0.200E-01    0.604E-01
RMM:   6    -0.101169946495E+03    0.13787E-02   -0.95336E-04  9318   0.149E-01    0.237E-01
RMM:   7    -0.101169764280E+03    0.18222E-03   -0.28736E-04  6904   0.790E-02    0.109E-01
RMM:   8    -0.101169819303E+03   -0.55024E-04   -0.14349E-04  5663   0.552E-02
  71 F= -.10116982E+03 E0= -.10116992E+03  d E =-.478412E-02  mag=     9.3958
       N       E                     dE             d eps       ncg     rms          rms(c)
DAV:   1    -0.101160870606E+03    0.88937E-02   -0.17123E+00  9600   0.332E+00    0.231E-01
RMM:   2    -0.101166207725E+03   -0.53371E-02   -0.49738E-02  9706   0.585E-01    0.449E-01
RMM:   3    -0.101166058413E+03    0.14931E-03   -0.37432E-03  9652   0.238E-01    0.631E-01
RMM:   4    -0.101167634739E+03   -0.15763E-02   -0.77216E-04  9026   0.124E-01    0.108E+00
RMM:   5    -0.101164924300E+03    0.27104E-02   -0.61047E-04  8659   0.117E-01    0.123E-01
RMM:   6    -0.101165210604E+03   -0.28630E-03   -0.23407E-04  6233   0.721E-02    0.295E-01
RMM:   7    -0.101164937111E+03    0.27349E-03   -0.26262E-04  6564   0.804E-02    0.934E-02
RMM:   8    -0.101165057035E+03   -0.11992E-03   -0.23913E-04  6212   0.737E-02    0.198E-01
RMM:   9    -0.101164917669E+03    0.13937E-03   -0.15691E-04  5526   0.649E-02    0.511E-02
RMM:  10    -0.101164919877E+03   -0.22076E-05   -0.38441E-05  5279   0.311E-02
  72 F= -.10116492E+03 E0= -.10116502E+03  d E =0.489943E-02  mag=     9.3942
       N       E                     dE             d eps       ncg     rms          rms(c)
DAV:   1    -0.101163964715E+03    0.95295E-03   -0.49241E-02  9804   0.567E-01    0.486E-02
RMM:   2    -0.101164214878E+03   -0.25016E-03   -0.15906E-03  8247   0.114E-01    0.188E-01
RMM:   3    -0.101164170185E+03    0.44693E-04   -0.11492E-04  5530   0.479E-02
  73 F= -.10116417E+03 E0= -.10116420E+03  d E =0.749692E-03  mag=     9.3939
       N       E                     dE             d eps       ncg     rms          rms(c)
DAV:   1    -0.101165237211E+03   -0.10223E-02   -0.18905E-01  9600   0.111E+00    0.113E-01
RMM:   2    -0.101169065103E+03   -0.38279E-02   -0.65328E-03  9601   0.270E-01    0.119E+00
RMM:   3    -0.101166266484E+03    0.27986E-02   -0.93472E-04  9212   0.138E-01    0.497E-01
RMM:   4    -0.101165698191E+03    0.56829E-03   -0.35033E-04  7516   0.858E-02    0.100E-01
RMM:   5    -0.101165777542E+03   -0.79352E-04   -0.12590E-04  5550   0.534E-02
  74 F= -.10116578E+03 E0= -.10116585E+03  d E =-.160736E-02  mag=     9.3939
       N       E                     dE             d eps       ncg     rms          rms(c)
DAV:   1    -0.101166743141E+03   -0.10450E-02   -0.16752E+00  9600   0.326E+00    0.240E-01
RMM:   2    -0.101171660353E+03   -0.49172E-02   -0.47682E-02  9641   0.579E-01    0.384E-01
RMM:   3    -0.101172205181E+03   -0.54483E-03   -0.34528E-03  9641   0.230E-01    0.822E-01
RMM:   4    -0.101172197368E+03    0.78125E-05   -0.80169E-04  9170   0.125E-01
  75 F= -.10117220E+03 E0= -.10117198E+03  d E =-.641983E-02  mag=     9.3944
       N       E                     dE             d eps       ncg     rms          rms(c)
DAV:   1    -0.101171749377E+03    0.45580E-03   -0.12057E-01  9924   0.123E+00    0.258E-01
RMM:   2    -0.101181513072E+03   -0.97637E-02   -0.12458E-02  9609   0.503E-01    0.163E+00
RMM:   3    -0.101172840871E+03    0.86722E-02   -0.62827E-03  9601   0.368E-01    0.608E-01
RMM:   4    -0.101172330184E+03    0.51069E-03   -0.49068E-04  8370   0.100E-01    0.480E-01
RMM:   5    -0.101171863646E+03    0.46654E-03   -0.41608E-04  7817   0.909E-02    0.160E-01
RMM:   6    -0.101172192178E+03   -0.32853E-03   -0.29405E-04  6867   0.792E-02    0.336E-01
RMM:   7    -0.101171801914E+03    0.39026E-03   -0.26135E-04  6429   0.830E-02    0.625E-02
RMM:   8    -0.101171855163E+03   -0.53249E-04   -0.11458E-04  5429   0.515E-02
  76 F= -.10117186E+03 E0= -.10117193E+03  d E =0.342206E-03  mag=     9.3956
       N       E                     dE             d eps       ncg     rms          rms(c)
DAV:   1    -0.101171378947E+03    0.42297E-03   -0.17166E-02 10176   0.404E-01    0.524E-02
RMM:   2    -0.101172050518E+03   -0.67157E-03   -0.92338E-04  9106   0.124E-01    0.484E-01
RMM:   3    -0.101171563662E+03    0.48686E-03   -0.17868E-04  5797   0.657E-02    0.264E-01
RMM:   4    -0.101171421610E+03    0.14205E-03   -0.79934E-05  5473   0.402E-02    0.507E-02
RMM:   5    -0.101171421325E+03    0.28532E-06   -0.25048E-05  5376   0.253E-02
  77 F= -.10117142E+03 E0= -.10117150E+03  d E =0.433838E-03  mag=     9.3956
       N       E                     dE             d eps       ncg     rms          rms(c)
DAV:   1    -0.101171961690E+03   -0.54008E-03   -0.28147E-02  9648   0.453E-01    0.395E-02
RMM:   2    -0.101172289766E+03   -0.32808E-03   -0.84430E-04  7615   0.972E-02    0.279E-01
RMM:   3    -0.101172067708E+03    0.22206E-03   -0.13967E-04  5561   0.586E-02    0.145E-01
RMM:   4    -0.101172033120E+03    0.34588E-04   -0.26703E-05  5357   0.239E-02
  78 F= -.10117203E+03 E0= -.10117213E+03  d E =-.611795E-03  mag=     9.3958
       N       E                     dE             d eps       ncg     rms          rms(c)
DAV:   1    -0.101173523936E+03   -0.14562E-02   -0.44420E-01  9600   0.182E+00    0.145E-01
RMM:   2    -0.101176675505E+03   -0.31516E-02   -0.10556E-02  9634   0.342E-01    0.947E-01
RMM:   3    -0.101174706678E+03    0.19688E-02   -0.94919E-04  9145   0.131E-01    0.427E-01
RMM:   4    -0.101174512383E+03    0.19429E-03   -0.48258E-04  8300   0.100E-01    0.246E-01
RMM:   5    -0.101174439205E+03    0.73178E-04   -0.20677E-04  5983   0.705E-02
  79 F= -.10117444E+03 E0= -.10117452E+03  d E =-.240609E-02  mag=     9.3965
       N       E                     dE             d eps       ncg     rms          rms(c)
DAV:   1    -0.101163586031E+03    0.10926E-01   -0.27460E+00  9600   0.457E+00    0.324E-01
RMM:   2    -0.101179911219E+03   -0.16325E-01   -0.63204E-02  9642   0.879E-01    0.206E+00
RMM:   3    -0.101170951446E+03    0.89598E-02   -0.52866E-03  9683   0.302E-01    0.981E-01
RMM:   4    -0.101169979872E+03    0.97157E-03   -0.29194E-03  9656   0.242E-01    0.584E-01
RMM:   5    -0.101169141734E+03    0.83814E-03   -0.96391E-04  9396   0.144E-01    0.365E-01
RMM:   6    -0.101168799536E+03    0.34220E-03   -0.43322E-04  8117   0.996E-02    0.176E-01
RMM:   7    -0.101169116940E+03   -0.31740E-03   -0.41268E-04  7965   0.896E-02    0.339E-01
RMM:   8    -0.101168712894E+03    0.40405E-03   -0.36658E-04  7716   0.941E-02    0.938E-02
RMM:   9    -0.101168805011E+03   -0.92117E-04   -0.21079E-04  6012   0.681E-02
  80 F= -.10116881E+03 E0= -.10116889E+03  d E =0.563419E-02  mag=     9.3949
       N       E                     dE             d eps       ncg     rms          rms(c)
DAV:   1    -0.101167983093E+03    0.72980E-03   -0.41331E-02 10452   0.638E-01    0.856E-02
RMM:   2    -0.101169749911E+03   -0.17668E-02   -0.17378E-03  9590   0.183E-01    0.781E-01
RMM:   3    -0.101168489697E+03    0.12602E-02   -0.48903E-04  8278   0.104E-01    0.439E-01
RMM:   4    -0.101168054872E+03    0.43483E-03   -0.21446E-04  5970   0.680E-02    0.841E-02
RMM:   5    -0.101168074521E+03   -0.19649E-04   -0.81354E-05  5417   0.432E-02
  81 F= -.10116807E+03 E0= -.10116813E+03  d E =0.730490E-03  mag=     9.3944
       N       E                     dE             d eps       ncg     rms          rms(c)
DAV:   1    -0.101168166381E+03   -0.11151E-03   -0.95770E-04 11016   0.176E-01    0.651E-02
RMM:   2    -0.101169204828E+03   -0.10384E-02   -0.77722E-04  9124   0.132E-01    0.544E-01
RMM:   3    -0.101168272562E+03    0.93227E-03   -0.46319E-04  8373   0.104E-01    0.226E-01
RMM:   4    -0.101168172317E+03    0.10024E-03   -0.36010E-05  5467   0.268E-02    0.762E-02
RMM:   5    -0.101168162429E+03    0.98878E-05   -0.20744E-05  5320   0.212E-02
  82 F= -.10116816E+03 E0= -.10116824E+03  d E =-.879084E-04  mag=     9.3941
       N       E                     dE             d eps       ncg     rms          rms(c)
DAV:   1    -0.101169456234E+03   -0.12839E-02   -0.20804E-01  9600   0.120E+00    0.895E-02
RMM:   2    -0.101170261216E+03   -0.80498E-03   -0.55222E-03  9588   0.221E-01    0.330E-01
RMM:   3    -0.101170109079E+03    0.15214E-03   -0.35049E-04  6308   0.751E-02    0.319E-01
RMM:   4    -0.101170020214E+03    0.88865E-04   -0.20992E-04  5822   0.688E-02
  83 F= -.10117002E+03 E0= -.10117011E+03  d E =-.185778E-02  mag=     9.3942
       N       E                     dE             d eps       ncg     rms          rms(c)
DAV:   1    -0.101170292542E+03   -0.18346E-03   -0.13053E-02 10188   0.413E-01    0.978E-02
RMM:   2    -0.101172438319E+03   -0.21458E-02   -0.17456E-03  9576   0.193E-01    0.835E-01
RMM:   3    -0.101170881687E+03    0.15566E-02   -0.69109E-04  8792   0.125E-01    0.503E-01
RMM:   4    -0.101170336146E+03    0.54554E-03   -0.20347E-04  5992   0.658E-02    0.116E-01
RMM:   5    -0.101170308156E+03    0.27990E-04   -0.79581E-05  5455   0.408E-02
  84 F= -.10117031E+03 E0= -.10117038E+03  d E =-.287941E-03  mag=     9.3944
       N       E                     dE             d eps       ncg     rms          rms(c)
DAV:   1    -0.101170801187E+03   -0.46504E-03   -0.24583E-01  9744   0.139E+00    0.144E-01
RMM:   2    -0.101175316266E+03   -0.45151E-02   -0.47520E-03  9610   0.320E-01    0.130E+00
RMM:   3    -0.101171846989E+03    0.34693E-02   -0.11430E-03  9489   0.159E-01    0.597E-01
RMM:   4    -0.101171090029E+03    0.75696E-03   -0.54963E-04  8313   0.104E-01    0.151E-01
RMM:   5    -0.101171171691E+03   -0.81662E-04   -0.21563E-04  6105   0.689E-02
  85 F= -.10117117E+03 E0= -.10117122E+03  d E =-.863535E-03  mag=     9.3947
       N       E                     dE             d eps       ncg     rms          rms(c)
DAV:   1    -0.101168224453E+03    0.28656E-02   -0.63420E-01  9624   0.214E+00    0.198E-01
RMM:   2    -0.101181544636E+03   -0.13320E-01   -0.20051E-02  9630   0.492E-01    0.199E+00
RMM:   3    -0.101171475131E+03    0.10070E-01   -0.28345E-03  9607   0.245E-01    0.955E-01
RMM:   4    -0.101169645461E+03    0.18297E-02   -0.90222E-04  9300   0.136E-01    0.186E-01
RMM:   5    -0.101169798546E+03   -0.15308E-03   -0.45145E-04  8131   0.964E-02    0.247E-01
RMM:   6    -0.101169577756E+03    0.22079E-03   -0.23822E-04  6367   0.775E-02    0.120E-01
RMM:   7    -0.101169568979E+03    0.87769E-05   -0.12760E-04  5466   0.540E-02
  86 F= -.10116957E+03 E0= -.10116967E+03  d E =0.160271E-02  mag=     9.3950
       N       E                     dE             d eps       ncg     rms          rms(c)
DAV:   1    -0.101169050110E+03    0.52765E-03   -0.42407E-02 10380   0.627E-01    0.147E-01
RMM:   2    -0.101173290571E+03   -0.42405E-02   -0.39750E-03  9600   0.302E-01    0.112E+00
RMM:   3    -0.101170157263E+03    0.31333E-02   -0.21314E-03  9429   0.218E-01    0.707E-01
RMM:   4    -0.101169063465E+03    0.10938E-02   -0.26878E-04  6758   0.726E-02    0.103E-01
RMM:   5    -0.101169068894E+03   -0.54286E-05   -0.99775E-05  5522   0.463E-02
  87 F= -.10116907E+03 E0= -.10116917E+03  d E =0.500085E-03  mag=     9.3949
       N       E                     dE             d eps       ncg     rms          rms(c)
DAV:   1    -0.101169203472E+03   -0.14001E-03   -0.43449E-03 10236   0.239E-01    0.598E-02
RMM:   2    -0.101170101639E+03   -0.89817E-03   -0.70493E-04  9092   0.128E-01    0.449E-01
RMM:   3    -0.101169449606E+03    0.65203E-03   -0.35136E-04  7609   0.911E-02    0.333E-01
RMM:   4    -0.101169222224E+03    0.22738E-03   -0.73347E-05  5509   0.389E-02    0.869E-02
RMM:   5    -0.101169201823E+03    0.20401E-04   -0.25970E-05  5257   0.233E-02
  88 F= -.10116920E+03 E0= -.10116928E+03  d E =-.132929E-03  mag=     9.3949
       N       E                     dE             d eps       ncg     rms          rms(c)
DAV:   1    -0.101169907815E+03   -0.68559E-03   -0.53784E-02  9696   0.622E-01    0.486E-02
RMM:   2    -0.101170218697E+03   -0.31088E-03   -0.15460E-03  8575   0.124E-01    0.221E-01
RMM:   3    -0.101170062145E+03    0.15655E-03   -0.18810E-04  5668   0.648E-02    0.120E-01
RMM:   4    -0.101170071143E+03   -0.89972E-05   -0.37767E-05  5313   0.291E-02
  89 F= -.10117007E+03 E0= -.10117021E+03  d E =-.869319E-03  mag=     9.3951
       N       E                     dE             d eps       ncg     rms          rms(c)
DAV:   1    -0.101171007431E+03   -0.94529E-03   -0.15848E-01  9600   0.103E+00    0.905E-02
RMM:   2    -0.101172522895E+03   -0.15155E-02   -0.49962E-03  9539   0.217E-01    0.586E-01
RMM:   3    -0.101171727355E+03    0.79554E-03   -0.51179E-04  8012   0.100E-01    0.401E-01
RMM:   4    -0.101171410417E+03    0.31694E-03   -0.16543E-04  5730   0.608E-02    0.135E-01
RMM:   5    -0.101171410334E+03    0.82146E-07   -0.10864E-04  5463   0.499E-02
  90 F= -.10117141E+03 E0= -.10117152E+03  d E =-.133919E-02  mag=     9.3956
       N       E                     dE             d eps       ncg     rms          rms(c)
DAV:   1    -0.101152482783E+03    0.18928E-01   -0.47815E+00  9600   0.555E+00    0.349E-01
RMM:   2    -0.101172572106E+03   -0.20089E-01   -0.14358E-01  9633   0.974E-01    0.156E+00
RMM:   3    -0.101166899080E+03    0.56730E-02   -0.80047E-03  9640   0.313E-01    0.109E+00
RMM:   4    -0.101166701121E+03    0.19796E-03   -0.29917E-03  9671   0.239E-01    0.881E-01
RMM:   5    -0.101164654185E+03    0.20469E-02   -0.12903E-03  9548   0.169E-01    0.353E-01
RMM:   6    -0.101164284688E+03    0.36950E-03   -0.61414E-04  8697   0.116E-01    0.208E-01
RMM:   7    -0.101164387461E+03   -0.10277E-03   -0.58415E-04  8606   0.104E-01    0.256E-01
RMM:   8    -0.101164218163E+03    0.16930E-03   -0.58749E-04  8868   0.114E-01    0.200E-01
RMM:   9    -0.101164246967E+03   -0.28804E-04   -0.35894E-04  7566   0.872E-02
  91 F= -.10116425E+03 E0= -.10116438E+03  d E =0.716337E-02  mag=     9.3933
       N       E                     dE             d eps       ncg     rms          rms(c)
DAV:   1    -0.101165285341E+03   -0.10672E-02   -0.75626E-01  9600   0.225E+00    0.148E-01
RMM:   2    -0.101168962547E+03   -0.36772E-02   -0.23194E-02  9648   0.414E-01    0.716E-01
RMM:   3    -0.101167773007E+03    0.11895E-02   -0.13951E-03  9350   0.140E-01    0.539E-01
RMM:   4    -0.101167349392E+03    0.42361E-03   -0.57460E-04  8721   0.107E-01    0.273E-01
RMM:   5    -0.101167288715E+03    0.60678E-04   -0.25416E-04  6460   0.767E-02
  92 F= -.10116729E+03 E0= -.10116738E+03  d E =-.304175E-02  mag=     9.3935
       N       E                     dE             d eps       ncg     rms          rms(c)
DAV:   1    -0.101164208686E+03    0.31407E-02   -0.34347E-01  9648   0.152E+00    0.109E-01
RMM:   2    -0.101166282492E+03   -0.20738E-02   -0.11358E-02  9618   0.296E-01    0.595E-01
RMM:   3    -0.101165538889E+03    0.74360E-03   -0.89923E-04  8985   0.122E-01    0.435E-01
RMM:   4    -0.101165266362E+03    0.27253E-03   -0.22901E-04  5902   0.689E-02    0.225E-01
RMM:   5    -0.101165247057E+03    0.19305E-04   -0.17791E-04  5720   0.661E-02
  93 F= -.10116525E+03 E0= -.10116535E+03  d E =0.204166E-02  mag=     9.3934
       N       E                     dE             d eps       ncg     rms          rms(c)
DAV:   1    -0.101163595479E+03    0.16709E-02   -0.13767E-01  9600   0.967E-01    0.778E-02
RMM:   2    -0.101164302061E+03   -0.70658E-03   -0.46734E-03  9549   0.194E-01    0.298E-01
RMM:   3    -0.101163982565E+03    0.31950E-03   -0.41374E-04  7366   0.878E-02    0.155E-01
RMM:   4    -0.101164074793E+03   -0.92228E-04   -0.78836E-05  5479   0.410E-02
  94 F= -.10116407E+03 E0= -.10116425E+03  d E =0.117226E-02  mag=     9.3930
       N       E                     dE             d eps       ncg     rms          rms(c)
DAV:   1    -0.101165018316E+03   -0.10358E-02   -0.22271E-01  9600   0.123E+00    0.108E-01
RMM:   2    -0.101167677069E+03   -0.26588E-02   -0.79314E-03  9598   0.276E-01    0.799E-01
RMM:   3    -0.101166291247E+03    0.13858E-02   -0.87522E-04  9179   0.130E-01    0.544E-01
RMM:   4    -0.101165693513E+03    0.59773E-03   -0.31224E-04  6986   0.816E-02    0.182E-01
RMM:   5    -0.101165657849E+03    0.35664E-04   -0.17302E-04  5731   0.621E-02
  95 F= -.10116566E+03 E0= -.10116576E+03  d E =-.158306E-02  mag=     9.3930
       N       E                     dE             d eps       ncg     rms          rms(c)
DAV:   1    -0.101166343419E+03   -0.64991E-03   -0.64615E-02  9696   0.701E-01    0.777E-02
RMM:   2    -0.101167205272E+03   -0.86185E-03   -0.23942E-03  9592   0.176E-01    0.454E-01
RMM:   3    -0.101166552788E+03    0.65248E-03   -0.52160E-04  8364   0.106E-01    0.195E-01
RMM:   4    -0.101166511100E+03    0.41688E-04   -0.51206E-05  5434   0.330E-02
  96 F= -.10116651E+03 E0= -.10116656E+03  d E =-.853251E-03  mag=     9.3933
       N       E                     dE             d eps       ncg     rms          rms(c)
DAV:   1    -0.101167790105E+03   -0.12373E-02   -0.29534E-01  9600   0.145E+00    0.126E-01
RMM:   2    -0.101170636058E+03   -0.28460E-02   -0.86254E-03  9620   0.292E-01    0.815E-01
RMM:   3    -0.101168994514E+03    0.16415E-02   -0.82858E-04  9187   0.125E-01    0.516E-01
RMM:   4    -0.101168477257E+03    0.51726E-03   -0.36988E-04  7613   0.882E-02    0.189E-01
RMM:   5    -0.101168530453E+03   -0.53196E-04   -0.21710E-04  5985   0.688E-02
  97 F= -.10116853E+03 E0= -.10116864E+03  d E =-.201935E-02  mag=     9.3941
       N       E                     dE             d eps       ncg     rms          rms(c)
DAV:   1    -0.101162455580E+03    0.60217E-02   -0.10081E+00  9600   0.267E+00    0.173E-01
RMM:   2    -0.101166431626E+03   -0.39760E-02   -0.29262E-02  9633   0.490E-01    0.562E-01
RMM:   3    -0.101165291324E+03    0.11403E-02   -0.24701E-03  9644   0.205E-01    0.406E-01
RMM:   4    -0.101165825767E+03   -0.53444E-03   -0.45750E-04  7874   0.940E-02    0.657E-01
RMM:   5    -0.101165088457E+03    0.73731E-03   -0.37634E-04  7786   0.929E-02    0.261E-01
RMM:   6    -0.101164881001E+03    0.20746E-03   -0.21067E-04  6038   0.723E-02    0.117E-01
RMM:   7    -0.101164871171E+03    0.98299E-05   -0.10117E-04  5408   0.481E-02
  98 F= -.10116487E+03 E0= -.10116494E+03  d E =0.365928E-02  mag=     9.3935
       N       E                     dE             d eps       ncg     rms          rms(c)
DAV:   1    -0.101165442281E+03   -0.56128E-03   -0.41976E-02  9648   0.588E-01    0.117E-01
RMM:   2    -0.101168040313E+03   -0.25980E-02   -0.34255E-03  9600   0.250E-01    0.875E-01
RMM:   3    -0.101165623277E+03    0.24170E-02   -0.16432E-03  9462   0.188E-01    0.249E-01
RMM:   4    -0.101165566837E+03    0.56440E-04   -0.71901E-05  5560   0.382E-02
  99 F= -.10116557E+03 E0= -.10116570E+03  d E =-.695666E-03  mag=     9.3936
       N       E                     dE             d eps       ncg     rms          rms(c)
DAV:   1    -0.101165794956E+03   -0.17168E-03   -0.68467E-03 10764   0.299E-01    0.813E-02
RMM:   2    -0.101168037633E+03   -0.22427E-02   -0.12967E-03  9567   0.172E-01    0.825E-01
RMM:   3    -0.101166347875E+03    0.16898E-02   -0.54191E-04  8642   0.112E-01    0.506E-01
RMM:   4    -0.101165807626E+03    0.54025E-03   -0.20615E-04  5986   0.662E-02    0.925E-02
RMM:   5    -0.101165790077E+03    0.17549E-04   -0.43016E-05  5413   0.293E-02
 100 F= -.10116579E+03 E0= -.10116588E+03  d E =-.223240E-03  mag=     9.3936
       N       E                     dE             d eps       ncg     rms          rms(c)
DAV:   1    -0.101166422900E+03   -0.61527E-03   -0.46637E-02  9600   0.567E-01    0.539E-02
RMM:   2    -0.101166831024E+03   -0.40812E-03   -0.14880E-03  8960   0.128E-01    0.269E-01
RMM:   3    -0.101166573986E+03    0.25704E-03   -0.23007E-04  5961   0.735E-02    0.160E-01
RMM:   4    -0.101166537998E+03    0.35988E-04   -0.39202E-05  5347   0.285E-02
 101 F= -.10116654E+03 E0= -.10116666E+03  d E =-.747921E-03  mag=     9.3937
       N       E                     dE             d eps       ncg     rms          rms(c)
DAV:   1    -0.101167972666E+03   -0.13987E-02   -0.59052E-01  9600   0.200E+00    0.151E-01
RMM:   2    -0.101170972181E+03   -0.29995E-02   -0.17168E-02  9619   0.374E-01    0.682E-01
RMM:   3    -0.101169711372E+03    0.12608E-02   -0.13593E-03  9520   0.152E-01    0.447E-01
RMM:   4    -0.101169601284E+03    0.11009E-03   -0.28338E-04  6457   0.755E-02    0.337E-01
RMM:   5    -0.101169441187E+03    0.16010E-03   -0.24931E-04  6295   0.760E-02    0.191E-01
RMM:   6    -0.101169302753E+03    0.13843E-03   -0.20217E-04  5964   0.735E-02    0.103E-01
RMM:   7    -0.101169361023E+03   -0.58270E-04   -0.15708E-04  5529   0.585E-02
 102 F= -.10116936E+03 E0= -.10116947E+03  d E =-.282302E-02  mag=     9.3951
       N       E                     dE             d eps       ncg     rms          rms(c)
DAV:   1    -0.101165960061E+03    0.33427E-02   -0.42177E-01  9600   0.171E+00    0.146E-01
RMM:   2    -0.101169024657E+03   -0.30646E-02   -0.13752E-02  9613   0.367E-01    0.755E-01
RMM:   3    -0.101167061159E+03    0.19635E-02   -0.19569E-03  9604   0.194E-01    0.207E-01
RMM:   4    -0.101167510526E+03   -0.44937E-03   -0.21261E-04  5825   0.657E-02    0.494E-01
RMM:   5    -0.101167064955E+03    0.44557E-03   -0.17631E-04  5691   0.659E-02    0.182E-01
RMM:   6    -0.101166960880E+03    0.10408E-03   -0.11556E-04  5486   0.562E-02    0.562E-02
RMM:   7    -0.101166995623E+03   -0.34743E-04   -0.73151E-05  5387   0.403E-02
 103 F= -.10116700E+03 E0= -.10116707E+03  d E =0.236540E-02  mag=     9.3949
       N       E                     dE             d eps       ncg     rms          rms(c)
DAV:   1    -0.101165417903E+03    0.15430E-02   -0.11863E-01  9600   0.913E-01    0.104E-01
RMM:   2    -0.101167714302E+03   -0.22964E-02   -0.46189E-03  9611   0.237E-01    0.741E-01
RMM:   3    -0.101165971104E+03    0.17432E-02   -0.83555E-04  9327   0.134E-01    0.361E-01
RMM:   4    -0.101165745583E+03    0.22552E-03   -0.11699E-04  5653   0.493E-02    0.166E-01
RMM:   5    -0.101165713992E+03    0.31591E-04   -0.11388E-04  5507   0.494E-02
 104 F= -.10116571E+03 E0= -.10116578E+03  d E =0.128163E-02  mag=     9.3945
       N       E                     dE             d eps       ncg     rms          rms(c)
DAV:   1    -0.101159962122E+03    0.57835E-02   -0.10366E+00  9600   0.262E+00    0.185E-01
RMM:   2    -0.101163209122E+03   -0.32470E-02   -0.28870E-02  9647   0.454E-01    0.367E-01
RMM:   3    -0.101162861646E+03    0.34748E-03   -0.21989E-03  9638   0.186E-01    0.432E-01
RMM:   4    -0.101163629466E+03   -0.76782E-03   -0.49366E-04  8145   0.983E-02    0.774E-01
RMM:   5    -0.101162434909E+03    0.11946E-02   -0.38942E-04  7966   0.957E-02    0.236E-01
RMM:   6    -0.101162297008E+03    0.13790E-03   -0.23501E-04  6295   0.742E-02    0.140E-01
RMM:   7    -0.101162418180E+03   -0.12117E-03   -0.24131E-04  6211   0.724E-02    0.206E-01
RMM:   8    -0.101162300449E+03    0.11773E-03   -0.21997E-04  5951   0.741E-02    0.139E-01
RMM:   9    -0.101162248227E+03    0.52223E-04   -0.10726E-04  5354   0.518E-02
 105 F= -.10116225E+03 E0= -.10116232E+03  d E =0.346577E-02  mag=     9.3927
       N       E                     dE             d eps       ncg     rms          rms(c)
DAV:   1    -0.101163562672E+03   -0.12622E-02   -0.85715E-01  9600   0.240E+00    0.166E-01
RMM:   2    -0.101166889930E+03   -0.33273E-02   -0.24819E-02  9620   0.437E-01    0.540E-01
RMM:   3    -0.101165833649E+03    0.10563E-02   -0.20666E-03  9630   0.186E-01    0.357E-01
RMM:   4    -0.101166300208E+03   -0.46656E-03   -0.33449E-04  6660   0.795E-02    0.586E-01
RMM:   5    -0.101165636243E+03    0.66397E-03   -0.31259E-04  7196   0.866E-02    0.198E-01
RMM:   6    -0.101165526257E+03    0.10999E-03   -0.17051E-04  5647   0.656E-02    0.879E-02
RMM:   7    -0.101165640862E+03   -0.11461E-03   -0.18172E-04  5778   0.617E-02    0.183E-01
RMM:   8    -0.101165521919E+03    0.11894E-03   -0.16514E-04  5528   0.659E-02    0.704E-02
RMM:   9    -0.101165524661E+03   -0.27421E-05   -0.74025E-05  5380   0.422E-02
 106 F= -.10116552E+03 E0= -.10116560E+03  d E =-.327643E-02  mag=     9.3934
       N       E                     dE             d eps       ncg     rms          rms(c)
DAV:   1    -0.101161173905E+03    0.43480E-02   -0.65883E-01  9600   0.209E+00    0.139E-01
RMM:   2    -0.101163595121E+03   -0.24212E-02   -0.18591E-02  9625   0.366E-01    0.451E-01
RMM:   3    -0.101162837107E+03    0.75801E-03   -0.12991E-03  9418   0.142E-01    0.234E-01
RMM:   4    -0.101163712220E+03   -0.87511E-03   -0.29616E-04  6415   0.782E-02    0.680E-01
RMM:   5    -0.101162690671E+03    0.10215E-02   -0.16809E-04  5735   0.686E-02    0.125E-01
RMM:   6    -0.101162686542E+03    0.41282E-05   -0.11463E-04  5556   0.525E-02
 107 F= -.10116269E+03 E0= -.10116277E+03  d E =0.283812E-02  mag=     9.3930
       N       E                     dE             d eps       ncg     rms          rms(c)
DAV:   1    -0.101163289561E+03   -0.59889E-03   -0.54923E-02  9648   0.673E-01    0.146E-01
RMM:   2    -0.101167241522E+03   -0.39520E-02   -0.50813E-03  9604   0.318E-01    0.107E+00
RMM:   3    -0.101164492702E+03    0.27488E-02   -0.21295E-03  9501   0.216E-01    0.712E-01
RMM:   4    -0.101163431112E+03    0.10616E-02   -0.31454E-04  7192   0.799E-02    0.165E-01
RMM:   5    -0.101163369956E+03    0.61156E-04   -0.12888E-04  5619   0.523E-02
 108 F= -.10116337E+03 E0= -.10116346E+03  d E =-.683414E-03  mag=     9.3929
       N       E                     dE             d eps       ncg     rms          rms(c)
DAV:   1    -0.101163588375E+03   -0.15726E-03   -0.36773E-03 10596   0.217E-01    0.753E-02
RMM:   2    -0.101164905475E+03   -0.13171E-02   -0.10960E-03  9510   0.155E-01    0.609E-01
RMM:   3    -0.101163604933E+03    0.13005E-02   -0.68756E-04  8864   0.125E-01    0.114E-01
RMM:   4    -0.101163592675E+03    0.12258E-04   -0.38671E-05  5450   0.276E-02
 109 F= -.10116359E+03 E0= -.10116364E+03  d E =-.222719E-03  mag=     9.3929
       N       E                     dE             d eps       ncg     rms          rms(c)
DAV:   1    -0.101164260703E+03   -0.65577E-03   -0.54731E-02  9600   0.619E-01    0.519E-02
RMM:   2    -0.101165192344E+03   -0.93164E-03   -0.16707E-03  8688   0.126E-01    0.564E-01
RMM:   3    -0.101164424708E+03    0.76764E-03   -0.17138E-04  5720   0.615E-02    0.154E-01
[...]
RMM:  16    -0.116450280307E+02    0.20941E-03   -0.48378E-04  8452   0.102E-01    0.311E-01
RMM:  17    -0.116448580422E+02    0.16999E-03   -0.34310E-04  7545   0.899E-02    0.119E-01
RMM:  18    -0.116449587455E+02   -0.10070E-03   -0.19592E-04  6203   0.701E-02    0.222E-01
RMM:  19    -0.116449800813E+02   -0.21336E-04   -0.10327E-04  5823   0.518E-02
 576 F= -.11644980E+02 E0= -.11644441E+02  d E =-.685037E+00  mag=     6.5979
       N       E                     dE             d eps       ncg     rms          rms(c)
DAV:   1     0.130670944417E+02    0.24712E+02   -0.34828E+03 10788   0.204E+02    0.259E+01
RMM:   2    -0.952811403567E+02   -0.10835E+03   -0.32880E+02  9733   0.770E+01    0.817E+01
RMM:   3    -0.405120525140E+02    0.54769E+02   -0.56881E+01  9605   0.342E+01    0.674E+01
RMM:   4    -0.182026286235E+02    0.22309E+02   -0.29069E+01  9677   0.245E+01    0.625E+01
RMM:   5    -0.593449479092E+01    0.12268E+02   -0.88669E+00  9686   0.122E+01    0.309E+01
RMM:   6    -0.204720903561E+01    0.38873E+01   -0.10371E+01  9600   0.147E+01    0.314E+01
RMM:   7    -0.922318113269E+00    0.11249E+01   -0.47346E+00  9604   0.962E+00    0.261E+01
RMM:   8     0.704893058923E+00    0.16272E+01   -0.43770E+00  9639   0.942E+00    0.191E+01
RMM:   9    -0.136691142678E+01   -0.20718E+01   -0.25298E+00  9600   0.729E+00    0.492E+01
RMM:  10     0.128595225048E+01    0.26529E+01   -0.28352E+00  9601   0.613E+00    0.168E+01
RMM:  11     0.151208801346E+01    0.22614E+00   -0.22865E+00  9640   0.702E+00    0.166E+01
RMM:  12     0.189589367270E+01    0.38381E+00   -0.14906E+00  9600   0.568E+00    0.105E+01
RMM:  13     0.212986013704E+01    0.23397E+00   -0.79118E-01  9620   0.421E+00    0.100E+01
RMM:  14     0.214728405977E+01    0.17424E-01   -0.33776E-01  9621   0.260E+00    0.939E+00
RMM:  15     0.235697151566E+01    0.20969E+00   -0.25534E-01  9619   0.220E+00    0.810E+00
RMM:  16     0.247320016137E+01    0.11623E+00   -0.25734E-01  9619   0.222E+00    0.735E+00
RMM:  17     0.281366601941E+01    0.34047E+00   -0.26384E-01  9624   0.224E+00    0.620E+00
RMM:  18     0.285121970308E+01    0.37554E-01   -0.84096E-02  9641   0.135E+00    0.546E+00
RMM:  19     0.285232079847E+01    0.11011E-02   -0.48456E-02  9602   0.103E+00    0.473E+00
RMM:  20     0.285115434114E+01   -0.11665E-02   -0.25912E-02  9630   0.722E-01    0.406E+00
RMM:  21     0.284513169985E+01   -0.60226E-02   -0.17601E-02  9601   0.557E-01    0.360E+00
RMM:  22     0.281443315962E+01   -0.30699E-01   -0.23897E-02  9602   0.635E-01    0.285E+00
RMM:  23     0.270325501856E+01   -0.11118E+00   -0.41380E-02  9618   0.721E-01    0.178E+00
RMM:  24     0.265444199518E+01   -0.48813E-01   -0.17054E-02  9603   0.524E-01    0.139E+00
RMM:  25     0.258925676898E+01   -0.65185E-01   -0.18751E-02  9618   0.458E-01    0.143E+00
RMM:  26     0.252989845339E+01   -0.59358E-01   -0.18449E-02  9600   0.384E-01    0.139E+00
RMM:  27     0.246044807886E+01   -0.69450E-01   -0.43628E-02  9600   0.413E-01    0.206E+00
RMM:  28     0.248514671084E+01    0.24699E-01   -0.82581E-03  9580   0.289E-01    0.187E+00
RMM:  29     0.245486770269E+01   -0.30279E-01   -0.12790E-02  9570   0.284E-01    0.173E+00
RMM:  30     0.245363579627E+01   -0.12319E-02   -0.26056E-02  9600   0.396E-01    0.165E+00
RMM:  31     0.246583041106E+01    0.12195E-01   -0.34304E-03  9594   0.184E-01    0.961E-01
RMM:  32     0.246423795897E+01   -0.15925E-02   -0.11246E-03  9235   0.121E-01    0.727E-01
RMM:  33     0.246600253553E+01    0.17646E-02   -0.35399E-03  9584   0.187E-01    0.554E-01
RMM:  34     0.246415953220E+01   -0.18430E-02   -0.18139E-03  8722   0.129E-01    0.342E-01
RMM:  35     0.245604513790E+01   -0.81144E-02   -0.16242E-03  9079   0.115E-01    0.233E-01
RMM:  36     0.244672469897E+01   -0.93204E-02   -0.24240E-03  9039   0.124E-01    0.348E-01
RMM:  37     0.244346731276E+01   -0.32574E-02   -0.68210E-04  7479   0.677E-02    0.352E-01
RMM:  38     0.243915726165E+01   -0.43101E-02   -0.15471E-03  7677   0.780E-02    0.111E-01
RMM:  39     0.243751265633E+01   -0.16446E-02   -0.66867E-04  7194   0.508E-02    0.209E-01
RMM:  40     0.243740105842E+01   -0.11160E-03   -0.11991E-04  6262   0.308E-02    0.747E-02
RMM:  41     0.243739306346E+01   -0.79950E-05   -0.35385E-05  5760   0.226E-02
 577 F= 0.24373931E+01 E0= 0.24363147E+01  d E =0.140824E+02  mag=     6.4339
       N       E                     dE             d eps       ncg     rms          rms(c)
DAV:   1     0.320561917462E+01    0.76822E+00   -0.27820E+03  9612   0.193E+02    0.247E+01
RMM:   2    -0.124569703072E+03   -0.12778E+03   -0.32486E+02  9905   0.806E+01    0.965E+01
RMM:   3    -0.543950990127E+02    0.70175E+02   -0.63710E+01  9645   0.353E+01    0.736E+01
RMM:   4    -0.291870754825E+02    0.25208E+02   -0.29574E+01  9671   0.234E+01    0.540E+01
RMM:   5    -0.155092023041E+02    0.13678E+02   -0.13399E+01  9640   0.162E+01    0.334E+01
RMM:   6    -0.100957589359E+02    0.54134E+01   -0.81538E+00  9600   0.130E+01    0.445E+01
RMM:   7    -0.899492148840E+01    0.11008E+01   -0.29205E+00  9640   0.721E+00    0.269E+01
RMM:   8    -0.756149983409E+01    0.14334E+01   -0.33521E+00  9600   0.814E+00    0.176E+01
RMM:   9    -0.716835462772E+01    0.39315E+00   -0.20316E+00  9600   0.656E+00    0.128E+01
RMM:  10    -0.694832570587E+01    0.22003E+00   -0.12184E+00  9620   0.520E+00    0.118E+01
RMM:  11    -0.691373060786E+01    0.34595E-01   -0.80630E-01  9640   0.412E+00    0.118E+01
RMM:  12    -0.689568064666E+01    0.18050E-01   -0.78032E-01  9633   0.388E+00    0.105E+01
RMM:  13    -0.667458160949E+01    0.22110E+00   -0.51712E-01  9600   0.332E+00    0.971E+00
RMM:  14    -0.652327150736E+01    0.15131E+00   -0.13852E-01  9603   0.173E+00    0.636E+00
RMM:  15    -0.667413112448E+01   -0.15086E+00   -0.22907E-01  9600   0.217E+00    0.960E+00
RMM:  16    -0.653164381046E+01    0.14249E+00   -0.13646E-01  9600   0.167E+00    0.556E+00
RMM:  17    -0.652592004344E+01    0.57238E-02   -0.17333E-01  9620   0.189E+00    0.784E+00
RMM:  18    -0.652308118582E+01    0.28389E-02   -0.80108E-02  9626   0.134E+00    0.102E+01
RMM:  19    -0.651479879673E+01    0.82824E-02   -0.54156E-03  9600   0.281E-01    0.103E+01
RMM:  20    -0.650549301559E+01    0.93058E-02   -0.46909E-04  7170   0.893E-02    0.102E+01
RMM:  21    -0.651441321638E+01   -0.89202E-02   -0.25432E-03  9509   0.234E-01    0.106E+01
RMM:  22    -0.651219461500E+01    0.22186E-02   -0.63302E-04  7098   0.972E-02    0.108E+01
RMM:  23    -0.650680460403E+01    0.53900E-02   -0.14773E-03  9311   0.166E-01    0.109E+01
RMM:  24    -0.650386361381E+01    0.29410E-02   -0.21792E-03  9493   0.213E-01    0.107E+01
RMM:  25    -0.652280833241E+01   -0.18945E-01   -0.18148E-02  9600   0.596E-01    0.130E+01
RMM:  26    -0.653493599087E+01   -0.12128E-01   -0.53798E-03  9444   0.286E-01    0.132E+01
RMM:  27    -0.649063547839E+01    0.44301E-01   -0.29748E-03  9512   0.206E-01    0.107E+01
RMM:  28    -0.650165992332E+01   -0.11024E-01   -0.41555E-03  9396   0.224E-01    0.101E+01
RMM:  29    -0.651591124667E+01   -0.14251E-01   -0.20258E-03  9221   0.186E-01    0.104E+01
RMM:  30    -0.650580799199E+01    0.10103E-01   -0.28686E-03  9577   0.234E-01    0.952E+00
RMM:  31    -0.645081682653E+01    0.54991E-01   -0.66117E-02  9616   0.984E-01    0.517E+00
RMM:  32    -0.643402601291E+01    0.16791E-01   -0.28794E-02  9620   0.520E-01    0.263E+00
RMM:  33    -0.641915750841E+01    0.14869E-01   -0.23372E-02  9600   0.549E-01    0.356E+00
RMM:  34    -0.648378269645E+01   -0.64625E-01   -0.33569E-02  9620   0.612E-01    0.464E+00
RMM:  35    -0.648340924814E+01    0.37345E-03   -0.19957E-02  9620   0.525E-01    0.464E+00
RMM:  36    -0.646629899725E+01    0.17110E-01   -0.69150E-03  9587   0.292E-01    0.387E+00
RMM:  37    -0.645153198850E+01    0.14767E-01   -0.21034E-02  9506   0.426E-01    0.261E+00
RMM:  38    -0.640153660629E+01    0.49995E-01   -0.16794E-02  9600   0.365E-01    0.232E+00
RMM:  39    -0.635070631640E+01    0.50830E-01   -0.92172E-03  8828   0.239E-01    0.247E+00
RMM:  40    -0.638459837054E+01   -0.33892E-01   -0.21310E-03  7958   0.141E-01    0.226E+00
RMM:  41    -0.644291439138E+01   -0.58316E-01   -0.22030E-02  9560   0.374E-01    0.234E+00
RMM:  42    -0.645877483874E+01   -0.15860E-01   -0.31255E-02  9640   0.508E-01    0.194E+00
RMM:  43    -0.643402229343E+01    0.24753E-01   -0.15268E-02  9562   0.372E-01    0.176E+00
RMM:  44    -0.642977426929E+01    0.42480E-02   -0.14427E-02  9560   0.348E-01    0.161E+00
RMM:  45    -0.643610670624E+01   -0.63324E-02   -0.32613E-03  8963   0.199E-01    0.136E+00
RMM:  46    -0.645134753738E+01   -0.15241E-01   -0.17226E-03  8413   0.135E-01    0.127E+00
RMM:  47    -0.647483759011E+01   -0.23490E-01   -0.86092E-03  9578   0.275E-01    0.110E+00
RMM:  48    -0.647664758012E+01   -0.18100E-02   -0.30921E-03  8597   0.152E-01    0.125E+00
RMM:  49    -0.647082362637E+01    0.58240E-02   -0.29202E-03  9091   0.167E-01    0.179E+00
RMM:  50    -0.645965226636E+01    0.11171E-01   -0.14582E-03  8321   0.130E-01    0.203E+00
RMM:  51    -0.645471224786E+01    0.49400E-02   -0.20503E-04  6354   0.516E-02    0.219E+00
RMM:  52    -0.648866149594E+01   -0.33949E-01   -0.54983E-03  8751   0.255E-01    0.237E+00
RMM:  53    -0.650854547300E+01   -0.19884E-01   -0.59431E-03  9338   0.289E-01    0.241E+00
RMM:  54    -0.651178570457E+01   -0.32402E-02   -0.11240E-03  7599   0.124E-01    0.203E+00
RMM:  55    -0.651238919785E+01   -0.60349E-03   -0.39313E-04  6711   0.663E-02    0.163E+00
RMM:  56    -0.651474424597E+01   -0.23550E-02   -0.15814E-03  7781   0.129E-01    0.143E+00
RMM:  57    -0.651598572305E+01   -0.12415E-02   -0.72764E-04  7036   0.848E-02    0.135E+00
RMM:  58    -0.651719655942E+01   -0.12108E-02   -0.44131E-04  6719   0.697E-02    0.135E+00
RMM:  59    -0.651686818590E+01    0.32837E-03   -0.63647E-04  7115   0.793E-02    0.128E+00
RMM:  60    -0.651784498677E+01   -0.97680E-03   -0.38328E-04  6795   0.711E-02    0.105E+00
RMM:  61    -0.651834654737E+01   -0.50156E-03   -0.44551E-04  7082   0.838E-02    0.542E-01
RMM:  62    -0.651879371908E+01   -0.44717E-03   -0.28800E-04  6684   0.671E-02    0.210E-01
RMM:  63    -0.651906680725E+01   -0.27309E-03   -0.12263E-04  6143   0.501E-02    0.194E-01
RMM:  64    -0.651923250116E+01   -0.16569E-03   -0.22662E-05  5338   0.207E-02    0.174E-01
RMM:  65    -0.651937698812E+01   -0.14449E-03   -0.17608E-05  4518   0.161E-02    0.162E-01
RMM:  66    -0.651976300259E+01   -0.38601E-03   -0.85676E-05  5980   0.338E-02    0.131E-01
RMM:  67    -0.652007415408E+01   -0.31115E-03   -0.46055E-04  7001   0.774E-02    0.130E-01
RMM:  68    -0.652028110445E+01   -0.20695E-03   -0.18463E-04  6451   0.563E-02    0.145E-01
RMM:  69    -0.652022606720E+01    0.55037E-04   -0.97656E-05  5990   0.391E-02
 578 F= -.65202261E+01 E0= -.65207437E+01  d E =-.895762E+01  mag=     8.0295
       N       E                     dE             d eps       ncg     rms          rms(c)
DAV:   1    -0.734414196473E+01   -0.82386E+00   -0.10444E+01  9972   0.101E+01    0.171E+00
RMM:   2    -0.802315774810E+01   -0.67902E+00   -0.60317E-01  9600   0.394E+00    0.239E+01
RMM:   3    -0.744800387286E+01    0.57515E+00   -0.10246E-01  9717   0.124E+00    0.555E+00
RMM:   4    -0.748191881733E+01   -0.33915E-01   -0.79717E-02  9638   0.127E+00    0.987E+00
RMM:   5    -0.742703667232E+01    0.54882E-01   -0.23912E-02  9600   0.660E-01    0.903E+00
RMM:   6    -0.742301523552E+01    0.40214E-02   -0.20069E-03  9404   0.191E-01    0.909E+00
RMM:   7    -0.741991958044E+01    0.30957E-02   -0.33776E-04  6818   0.758E-02    0.907E+00
RMM:   8    -0.741680821112E+01    0.31114E-02   -0.28582E-03  9519   0.241E-01    0.876E+00
RMM:   9    -0.740562127057E+01    0.11187E-01   -0.20434E-02  9600   0.639E-01    0.801E+00
RMM:  10    -0.739184032404E+01    0.13781E-01   -0.27522E-02  9600   0.712E-01    0.704E+00
RMM:  11    -0.736880872092E+01    0.23032E-01   -0.25607E-02  9600   0.731E-01    0.597E+00
RMM:  12    -0.735912824362E+01    0.96805E-02   -0.98564E-03  9600   0.462E-01    0.514E+00
RMM:  13    -0.734992269940E+01    0.92055E-02   -0.66541E-03  9600   0.377E-01    0.425E+00
RMM:  14    -0.734274414831E+01    0.71786E-02   -0.11325E-02  9560   0.494E-01    0.257E+00
RMM:  15    -0.735361190453E+01   -0.10868E-01   -0.16885E-02  9600   0.585E-01    0.163E+00
RMM:  16    -0.734958762123E+01    0.40243E-02   -0.13763E-02  9540   0.552E-01    0.141E+00
RMM:  17    -0.734639130053E+01    0.31963E-02   -0.44984E-03  9511   0.298E-01    0.146E+00
RMM:  18    -0.734584522126E+01    0.54608E-03   -0.15606E-03  9468   0.185E-01    0.135E+00
RMM:  19    -0.734750628789E+01   -0.16611E-02   -0.46001E-04  7721   0.932E-02    0.123E+00
RMM:  20    -0.734888376707E+01   -0.13775E-02   -0.20531E-04  6326   0.652E-02    0.110E+00
RMM:  21    -0.735137082709E+01   -0.24871E-02   -0.26006E-04  6715   0.657E-02    0.938E-01
RMM:  22    -0.735342218128E+01   -0.20514E-02   -0.43615E-04  7738   0.959E-02    0.798E-01
RMM:  23    -0.735655927896E+01   -0.31371E-02   -0.81292E-04  8636   0.120E-01    0.610E-01
RMM:  24    -0.735980708748E+01   -0.32478E-02   -0.17791E-03  9449   0.191E-01    0.566E-01
RMM:  25    -0.736374613186E+01   -0.39390E-02   -0.22228E-03  9498   0.203E-01    0.418E-01
RMM:  26    -0.736544036802E+01   -0.16942E-02   -0.15334E-03  9234   0.173E-01    0.346E-01
RMM:  27    -0.736653483391E+01   -0.10945E-02   -0.73289E-04  8506   0.127E-01    0.303E-01
RMM:  28    -0.736724517405E+01   -0.71034E-03   -0.29525E-04  7034   0.801E-02    0.362E-01
RMM:  29    -0.736778106156E+01   -0.53589E-03   -0.19851E-04  6396   0.674E-02    0.336E-01
RMM:  30    -0.736852518378E+01   -0.74412E-03   -0.32021E-04  6873   0.589E-02    0.153E-01
RMM:  31    -0.736887064499E+01   -0.34546E-03   -0.16819E-04  6459   0.471E-02    0.950E-02
RMM:  32    -0.736890633959E+01   -0.35695E-04   -0.14132E-04  6353   0.454E-02
 579 F= -.73689063E+01 E0= -.73691718E+01  d E =-.848680E+00  mag=     7.9040
       N       E                     dE             d eps       ncg     rms          rms(c)
DAV:   1     0.622160147103E+02    0.69585E+02   -0.58903E+03 11352   0.310E+02    0.473E+01
RMM:   2    -0.343339800520E+03   -0.40556E+03   -0.10978E+03 13940   0.116E+02    0.129E+02
RMM:   3    -0.176346127679E+03    0.16699E+03   -0.25877E+02 10022   0.681E+01    0.107E+02
RMM:   4    -0.450912124602E+02    0.13125E+03   -0.10877E+02  9611   0.474E+01    0.591E+01
RMM:   5    -0.202022279679E+02    0.24889E+02   -0.49015E+01  9600   0.322E+01    0.443E+01
RMM:   6    -0.175972531081E+02    0.26050E+01   -0.13380E+01  9640   0.160E+01    0.525E+01
RMM:   7    -0.647119101738E+01    0.11126E+02   -0.89773E+00  9666   0.129E+01    0.473E+01
RMM:   8    -0.170758117256E+01    0.47636E+01   -0.30724E+00  9680   0.700E+00    0.244E+01
RMM:   9     0.123318621104E+01    0.29408E+01   -0.25393E+00  9625   0.640E+00    0.229E+01
RMM:  10     0.432477391657E+01    0.30916E+01   -0.36537E+00  9600   0.792E+00    0.186E+01
RMM:  11     0.595654046859E+01    0.16318E+01   -0.43450E+00  9601   0.835E+00    0.138E+01
RMM:  12     0.615361959266E+01    0.19708E+00   -0.13751E+00  9607   0.539E+00    0.109E+01
RMM:  13     0.606049425053E+01   -0.93125E-01   -0.63439E-01  9654   0.355E+00    0.110E+01
RMM:  14     0.613300579090E+01    0.72512E-01   -0.77066E-01  9603   0.380E+00    0.187E+01
RMM:  15     0.600405551457E+01   -0.12895E+00   -0.81941E-01  9637   0.384E+00    0.111E+01
RMM:  16     0.628158497906E+01    0.27753E+00   -0.42514E-01  9616   0.311E+00    0.837E+00
RMM:  17     0.640984942568E+01    0.12826E+00   -0.22773E-01  9608   0.203E+00    0.594E+00
RMM:  18     0.640471641598E+01   -0.51330E-02   -0.13116E-02  9639   0.507E-01    0.600E+00
RMM:  19     0.644055311598E+01    0.35837E-01   -0.11855E-02  9621   0.446E-01    0.604E+00
RMM:  20     0.644452173570E+01    0.39686E-02   -0.14729E-03  8146   0.134E-01    0.606E+00
RMM:  21     0.638119626944E+01   -0.63325E-01   -0.42889E-02  9600   0.721E-01    0.687E+00
RMM:  22     0.639456720693E+01    0.13371E-01   -0.16955E-02  9606   0.515E-01    0.694E+00
RMM:  23     0.650742317296E+01    0.11286E+00   -0.87120E-02  9600   0.120E+00    0.621E+00
RMM:  24     0.674250808131E+01    0.23508E+00   -0.25764E-01  9600   0.181E+00    0.498E+00
RMM:  25     0.685870827880E+01    0.11620E+00   -0.12748E-01  9606   0.149E+00    0.402E+00
RMM:  26     0.673865486258E+01   -0.12005E+00   -0.10724E-01  9601   0.147E+00    0.526E+00
RMM:  27     0.677117813679E+01    0.32523E-01   -0.16458E-01  9619   0.143E+00    0.275E+00
RMM:  28     0.666130487774E+01   -0.10987E+00   -0.83699E-02  9601   0.964E-01    0.236E+00
RMM:  29     0.657655641328E+01   -0.84748E-01   -0.50650E-02  9600   0.840E-01    0.244E+00
RMM:  30     0.654813970774E+01   -0.28417E-01   -0.10337E-02  9586   0.335E-01    0.162E+00
RMM:  31     0.642839518545E+01   -0.11974E+00   -0.34270E-02  9580   0.544E-01    0.182E+00
RMM:  32     0.636619343680E+01   -0.62202E-01   -0.10669E-02  9534   0.274E-01    0.189E+00
RMM:  33     0.626287949982E+01   -0.10331E+00   -0.44096E-02  9580   0.451E-01    0.322E+00
RMM:  34     0.626287233822E+01   -0.71616E-05   -0.38526E-03  8921   0.211E-01    0.242E+00
RMM:  35     0.625311337714E+01   -0.97590E-02   -0.16504E-03  9040   0.126E-01    0.259E+00
RMM:  36     0.625310179091E+01   -0.11586E-04   -0.14467E-03  8898   0.161E-01    0.286E+00
RMM:  37     0.625595772637E+01    0.28559E-02   -0.20460E-04  6430   0.570E-02    0.277E+00
RMM:  38     0.625465659045E+01   -0.13011E-02   -0.22366E-04  6659   0.675E-02    0.282E+00
RMM:  39     0.626498222799E+01    0.10326E-01   -0.19444E-03  9123   0.154E-01    0.348E+00
RMM:  40     0.625798373744E+01   -0.69985E-02   -0.66255E-04  7446   0.945E-02    0.358E+00
RMM:  41     0.626190516752E+01    0.39214E-02   -0.93790E-05  6162   0.365E-02    0.325E+00
RMM:  42     0.625964258831E+01   -0.22626E-02   -0.95217E-04  8010   0.101E-01    0.309E+00
RMM:  43     0.626485829990E+01    0.52157E-02   -0.11065E-03  7442   0.966E-02    0.292E+00
RMM:  44     0.626228362111E+01   -0.25747E-02   -0.81621E-04  7527   0.862E-02    0.245E+00
RMM:  45     0.626536334875E+01    0.30797E-02   -0.71759E-04  7085   0.730E-02    0.225E+00
RMM:  46     0.634873117890E+01    0.83368E-01   -0.27805E-02  9551   0.417E-01    0.191E+00
RMM:  47     0.638388822843E+01    0.35157E-01   -0.18579E-02  9605   0.365E-01    0.653E+00
RMM:  48     0.634580069216E+01   -0.38088E-01   -0.12460E-02  9061   0.341E-01    0.108E+01
RMM:  49     0.634415994692E+01   -0.16407E-02   -0.17670E-02  9410   0.491E-01    0.138E+01
RMM:  50     0.646481450626E+01    0.12065E+00   -0.19193E-02  9518   0.438E-01    0.137E+01
RMM:  51     0.654298290794E+01    0.78168E-01   -0.45002E-03  9115   0.210E-01    0.136E+01
RMM:  52     0.672405268660E+01    0.18107E+00   -0.20611E-02  9600   0.497E-01    0.116E+01
RMM:  53     0.667521020671E+01   -0.48842E-01   -0.58191E-03  9559   0.322E-01    0.108E+01
RMM:  54     0.666310472707E+01   -0.12105E-01   -0.34297E-03  9010   0.189E-01    0.942E+00
RMM:  55     0.661603543305E+01   -0.47069E-01   -0.37985E-03  8957   0.209E-01    0.611E+00
RMM:  56     0.641787819923E+01   -0.19816E+00   -0.87977E-02  9600   0.810E-01    0.186E+00
RMM:  57     0.624453113829E+01   -0.17335E+00   -0.43855E-02  9560   0.733E-01    0.210E+00
RMM:  58     0.622274703120E+01   -0.21784E-01   -0.29808E-02  9580   0.469E-01    0.195E+00
RMM:  59     0.622216981160E+01   -0.57722E-03   -0.29710E-03  8865   0.169E-01    0.166E+00
RMM:  60     0.622219539135E+01    0.25580E-04   -0.76468E-04  7912   0.107E-01
 580 F= 0.62221954E+01 E0= 0.62218850E+01  d E =0.135911E+02  mag=     8.3780
       N       E                     dE             d eps       ncg     rms          rms(c)
