vasp.5.4.1 08Jul2015 (build Apr 24 2014 00:09:29) complex standard with constrain (TS)    
 executed on IBM of Center for Computational Chemistry date 2016.05.22  22:00:29
 running on   12 total cores
 distrk:  each k-point on   12 cores,    1 groups
 distr:  one band on NCORES_PER_BAND=   6 cores,    2 groups


--------------------------------------------------------------------------------------------------------


 INCAR:
 POTCAR:   PAW_PBE Pt 05Jan2001                   
 POTCAR:   PAW_PBE Pt 05Jan2001                   
  local pseudopotential read in
  partial core-charges read in
  atomic valenz-charges read in
  non local Contribution for L=           2  read in
    real space projection operators read in
  non local Contribution for L=           2  read in
    real space projection operators read in
  non local Contribution for L=           0  read in
    real space projection operators read in
  non local Contribution for L=           0  read in
    real space projection operators read in
  non local Contribution for L=           1  read in
    real space projection operators read in
  non local Contribution for L=           1  read in
    real space projection operators read in
    PAW grid and wavefunctions read in
 
   number of l-projection  operators is LMAX  =           6
   number of lm-projection operators is LMMAX =          18
 
 Optimization of the real space projectors (new method)

 maximal supplied QI-value         = 15.12
 optimisation between [QCUT,QGAM] = [ 10.73, 21.62] = [ 32.26,130.87] Ry 
 Optimized for a Real-space Cutoff    1.60 Angstroem

   l    n(q)    QCUT    max X(q) W(low)/X(q) W(high)/X(q)  e(spline) 
   2      9    10.734     3.643    0.28E-04    0.20E-04    0.48E-07
   2      9    10.734    46.462    0.45E-03    0.22E-03    0.31E-06
   0     10    10.734    13.796    0.18E-04    0.77E-06    0.13E-07
   0     10    10.734    57.669    0.41E-04    0.10E-04    0.24E-06
   1     10    10.734     7.440    0.91E-05    0.13E-04    0.23E-07
   1     10    10.734    10.255    0.28E-04    0.71E-04    0.78E-07
 PAW_PBE Pt 05Jan2001                   :
 energy of atom  1       EATOM= -729.1171
 kinetic energy error for atom=    0.0051 (will be added to EATOM!!)
 
 
 POSCAR: Created by VASPy                        
  positions in direct lattice
  No initial velocities read in
 exchange correlation table for  LEXCH =        8
   RHO(1)=    0.500       N(1)  =     2000
   RHO(2)=  100.500       N(2)  =     4000
 


--------------------------------------------------------------------------------------------------------


 ion  position               nearest neighbor table
   1  0.245  0.224  0.136-  13 2.81  25 2.81  33 2.81  17 2.81   3 2.81  18 2.81  15 2.81   6 2.81
                            19 2.81   2 2.81   9 2.81   5 2.81
   2  0.022  0.113  0.272-  26 2.81  14 2.81  34 2.81  18 2.81  16 2.81  33 2.81   4 2.81   9 2.81
                            12 2.81   1 2.81  10 2.81   6 2.81
   3  0.134  0.002  0.000-  15 2.81  27 2.81  19 2.81  35 2.81   1 2.81  25 2.81  33 2.81  11 2.81
                             7 2.81
   4  0.134  0.002  0.407-  16 2.81  28 2.81  20 2.81  36 2.81  26 2.81   2 2.81   6 2.81  12 2.81
                             8 2.81
   5  0.578  0.224  0.136-  17 2.81  29 2.81  21 2.81  25 2.81   7 2.81  22 2.81  19 2.81  10 2.81
                            23 2.81   6 2.81   9 2.81   1 2.81
   6  0.356  0.113  0.272-  30 2.81  18 2.81  22 2.81  26 2.81  20 2.81  25 2.81   8 2.81   1 2.81
                             4 2.81   5 2.81  10 2.81   2 2.81
   7  0.467  0.002  0.000-  19 2.81  31 2.81  23 2.81  27 2.81   5 2.81  29 2.81  25 2.81  11 2.81
                             3 2.81
   8  0.467  0.002  0.407-  20 2.81  32 2.81  24 2.81  28 2.81  30 2.81   6 2.81  10 2.81  12 2.81
                             4 2.81
   9  0.911  0.224  0.136-  21 2.81  33 2.81  29 2.81  13 2.81  11 2.81  14 2.81  23 2.81   2 2.81
                            15 2.81  10 2.81   5 2.81   1 2.81
  10  0.689  0.113  0.272-  34 2.81  22 2.81  30 2.81  14 2.81  24 2.81  29 2.81  12 2.81   5 2.81
                             8 2.81   9 2.81   6 2.81   2 2.81
  11  0.800  0.002  0.000-  23 2.81  35 2.81  15 2.81  31 2.81   9 2.81  33 2.81  29 2.81   7 2.81
                             3 2.81
  12  0.800  0.002  0.407-  24 2.81  36 2.81  16 2.81  32 2.81  34 2.81  10 2.81   2 2.81   4 2.81
                             8 2.81
  13  0.245  0.557  0.136-   1 2.81  25 2.81   9 2.81  29 2.81  15 2.81  30 2.81  27 2.81  18 2.81
                            31 2.81  14 2.81  21 2.81  17 2.81
  14  0.022  0.446  0.272-   2 2.81  26 2.81  10 2.81  30 2.81  28 2.81   9 2.81  16 2.81  21 2.81
                            24 2.81  13 2.81  22 2.81  18 2.81
  15  0.134  0.335  0.000-   3 2.81  27 2.81  11 2.81  31 2.81  13 2.81   1 2.81   9 2.81  23 2.81
                            19 2.81
  16  0.134  0.335  0.407-   4 2.81  28 2.81  12 2.81  32 2.81   2 2.81  14 2.81  18 2.81  24 2.81
                            20 2.81
  17  0.578  0.557  0.136-   5 2.81  29 2.81   1 2.81  33 2.81  19 2.81  34 2.81  31 2.81  22 2.81
                            35 2.81  18 2.81  21 2.81  13 2.81
  18  0.356  0.446  0.272-   6 2.81  30 2.81   2 2.81  34 2.81  32 2.81   1 2.81  20 2.81  13 2.81
                            16 2.81  17 2.81  22 2.81  14 2.81
  19  0.467  0.335  0.000-   7 2.81  31 2.81  35 2.81   3 2.81  17 2.81   5 2.81   1 2.81  23 2.81
                            15 2.81
  20  0.467  0.335  0.407-   8 2.81  32 2.81  36 2.81   4 2.81   6 2.81  18 2.81  22 2.81  24 2.81
                            16 2.81
  21  0.911  0.557  0.136-   9 2.81  33 2.81   5 2.81  25 2.81  23 2.81  26 2.81  35 2.81  14 2.81
                            27 2.81  22 2.81  17 2.81  13 2.81
  22  0.689  0.446  0.272-  10 2.81  34 2.81   6 2.81  26 2.81  36 2.81   5 2.81  24 2.81  17 2.81
                            20 2.81  21 2.81  14 2.81  18 2.81
  23  0.800  0.335  0.000-  11 2.81  35 2.81  27 2.81   7 2.81  21 2.81   9 2.81   5 2.81  19 2.81
                            15 2.81
  24  0.800  0.335  0.407-  12 2.81  36 2.81  28 2.81   8 2.81  10 2.81  22 2.81  14 2.81  20 2.81
                            16 2.81
  25  0.245  0.891  0.136-   1 2.81  13 2.81   5 2.81  21 2.81  27 2.81   6 2.81   3 2.81  30 2.81
                             7 2.81  26 2.81  33 2.81  29 2.81
  26  0.022  0.780  0.272-   2 2.81  14 2.81   6 2.81  22 2.81   4 2.81  21 2.81  28 2.81  33 2.81
                            36 2.81  25 2.81  34 2.81  30 2.81
  27  0.134  0.668  0.000-  15 2.81   3 2.81  23 2.81   7 2.81  25 2.81  13 2.81  21 2.81  35 2.81
                            31 2.81
  28  0.134  0.668  0.407-  16 2.81   4 2.81  24 2.81   8 2.81  14 2.81  26 2.81  30 2.81  36 2.81
                            32 2.81
  29  0.578  0.891  0.136-   5 2.81  17 2.81   9 2.81  13 2.81  31 2.81  10 2.81   7 2.81  34 2.81
                            11 2.81  30 2.81  33 2.81  25 2.81
  30  0.356  0.780  0.272-   6 2.81  18 2.81  10 2.81  14 2.81   8 2.81  13 2.81  32 2.81  25 2.81
                            28 2.81  29 2.81  34 2.81  26 2.81
  31  0.467  0.668  0.000-  19 2.81   7 2.81  15 2.81  11 2.81  29 2.81  17 2.81  13 2.81  35 2.81
                            27 2.81
  32  0.467  0.668  0.407-  20 2.81   8 2.81  16 2.81  12 2.81  18 2.81  30 2.81  34 2.81  36 2.81
                            28 2.81
  33  0.911  0.891  0.136-   9 2.81  21 2.81   1 2.81  17 2.81  35 2.81   2 2.81  11 2.81  26 2.81
                             3 2.81  34 2.81  25 2.81  29 2.81
  34  0.689  0.780  0.272-  10 2.81  22 2.81   2 2.81  18 2.81  12 2.81  17 2.81  36 2.81  29 2.81
                            32 2.81  33 2.81  30 2.81  26 2.81
  35  0.800  0.668  0.000-  23 2.81  11 2.81  19 2.81   3 2.81  33 2.81  21 2.81  17 2.81  31 2.81
                            27 2.81
  36  0.800  0.668  0.407-  24 2.81  12 2.81  20 2.81   4 2.81  22 2.81  34 2.81  26 2.81  32 2.81
                            28 2.81
 
  LATTYP: Found a hexagonal cell.
 ALAT       =     8.4214785323
 C/A-ratio  =     2.0039365255
  
  Lattice vectors:
  
 A1 = (   7.2932143500,  -4.2107392700,   0.0000000000)
 A2 = (   0.0000000000,   8.4214785300,   0.0000000000)
 A3 = (   0.0000000000,   0.0000000000,  16.8761084300)


Analysis of symmetry for initial positions (statically):
=====================================================================
 Subroutine PRICEL returns following result:
 
  LATTYP: Found a hexagonal cell.
 ALAT       =     2.8071595108
 C/A-ratio  =     6.0118095766
  
  Lattice vectors:
  
 A1 = (   2.4310714500,  -1.4035797567,   0.0000000000)
 A2 = (   0.0000000000,   2.8071595100,   0.0000000000)
 A3 = (   0.0000000000,   0.0000000000,  16.8761084300)
 
   9 primitive cells build up your supercell.
 

 Routine SETGRP: Setting up the symmetry group for a 
 hexagonal supercell.


 Subroutine GETGRP returns: Found 12 space group operations
 (whereof  1 operations were pure point group operations)
 out of a pool of 24 trial point group operations.


The static configuration has the point symmetry C_1 .
 The point group associated with its full space group is D_3d.


Analysis of symmetry for dynamics (positions and initial velocities):
=====================================================================
 Subroutine PRICEL returns following result:
 
  LATTYP: Found a hexagonal cell.
 ALAT       =     2.8071595108
 C/A-ratio  =     6.0118095766
  
  Lattice vectors:
  
 A1 = (   2.4310714500,  -1.4035797567,   0.0000000000)
 A2 = (   0.0000000000,   2.8071595100,   0.0000000000)
 A3 = (   0.0000000000,   0.0000000000,  16.8761084300)
 
   9 primitive cells build up your supercell.
 

 Routine SETGRP: Setting up the symmetry group for a 
 hexagonal supercell.


 Subroutine GETGRP returns: Found 12 space group operations
 (whereof  1 operations were pure point group operations)
 out of a pool of 24 trial point group operations.


The dynamic configuration has the point symmetry C_1 .
 The point group associated with its full space group is D_3d.


Analysis of constrained symmetry for selective dynamics:
=====================================================================
 Subroutine PRICEL returns following result:
 
  LATTYP: Found a hexagonal cell.
 ALAT       =     2.8071595108
 C/A-ratio  =     6.0118095766
  
  Lattice vectors:
  
 A1 = (   2.4310714500,  -1.4035797567,   0.0000000000)
 A2 = (   0.0000000000,   2.8071595100,   0.0000000000)
 A3 = (   0.0000000000,   0.0000000000,  16.8761084300)
 
   9 primitive cells build up your supercell.
 

 Routine SETGRP: Setting up the symmetry group for a 
 hexagonal supercell.


 Subroutine GETGRP returns: Found  6 space group operations
 (whereof  1 operations were pure point group operations)
 out of a pool of 24 trial point group operations.


The constrained configuration has the point symmetry C_1 .
 The point group associated with its full space group is C_3v.
 
 
 KPOINTS: mesh auto                               

Automatic generation of k-mesh.
Space group operators:
 irot       det(A)        alpha          n_x          n_y          n_z        tau_x        tau_y        tau_z
    1     1.000000     0.000001     1.000000     0.000000     0.000000     0.000000     0.000000     0.000000
    2     1.000000   120.000000     0.000000     0.000000    -1.000000     0.135333     0.203333     0.000000
    3     1.000000   120.000000     0.000000     0.000000     1.000000     0.265333     0.135333     0.000000
    4    -1.000000   180.000000     0.866025    -0.500000     0.000000     0.265333    -0.000000     0.000000
    5    -1.000000   179.999999     0.000000     1.000000     0.000000     0.000000     0.203333     0.000000
    6    -1.000000   180.000000     0.866025     0.500000     0.000000     0.135333     0.135333     0.000000
 
 Subroutine IBZKPT returns following result:
 ===========================================
 
 Found      3 irreducible k-points:
 
 Following reciprocal coordinates:
            Coordinates               Weight
  0.000000  0.000000  0.000000      1.000000
  0.333333  0.000000  0.000000      6.000000
  0.333333  0.333333  0.000000      2.000000
 
 Following cartesian coordinates:
            Coordinates               Weight
  0.000000  0.000000  0.000000      1.000000
  0.045705  0.000000  0.000000      6.000000
  0.068557  0.039581  0.000000      2.000000
 


--------------------------------------------------------------------------------------------------------




 Dimension of arrays:
   k-points           NKPTS =      3   k-points in BZ     NKDIM =      3   number of bands    NBANDS=    216
   number of dos      NEDOS =    301   number of ions     NIONS =     36
   non local maximal  LDIM  =      6   non local SUM 2l+1 LMDIM =     18
   total plane-waves  NPLWV = 207360
   max r-space proj   IRMAX =   3487   max aug-charges    IRDMAX=  12315
   dimension x,y,z NGX =    48 NGY =   48 NGZ =   90
   dimension x,y,z NGXF=    96 NGYF=   96 NGZF=  180
   support grid    NGXF=    96 NGYF=   96 NGZF=  180
   ions per type =              36
 NGX,Y,Z   is equivalent  to a cutoff of   9.48,  9.48,  8.87 a.u.
 NGXF,Y,Z  is equivalent  to a cutoff of  18.95, 18.95, 17.73 a.u.


 I would recommend the setting:
   dimension x,y,z NGX =    44 NGY =   44 NGZ =   88
 SYSTEM =  O2                                      
 POSCAR =  Created by VASPy                        

 Startparameter for this run:
   NWRITE =      1    write-flag & timer
   PREC   = normal    normal or accurate (medium, high low for compatibility)
   ISTART =      0    job   : 0-new  1-cont  2-samecut
   ICHARG =      2    charge: 1-file 2-atom 10-const
   ISPIN  =      1    spin polarized calculation?
   LNONCOLLINEAR =      F non collinear calculations
   LSORBIT =      F    spin-orbit coupling
   INIWAV =      1    electr: 0-lowe 1-rand  2-diag
   LASPH  =      F    aspherical Exc in radial PAW
   METAGGA=      F    non-selfconsistent MetaGGA calc.

 Electronic Relaxation 1
   ENCUT  =  450.0 eV  33.07 Ry    5.75 a.u.  14.57 14.57 29.19*2*pi/ulx,y,z
   ENINI  =  450.0     initial cutoff
   ENAUG  =  359.0 eV  augmentation charge cutoff
   NELM   =    300;   NELMIN=  3; NELMDL= -5     # of ELM steps 
   EDIFF  = 0.1E-03   stopping-criterion for ELM
   LREAL  =      T    real-space projection
   NLSPLINE    = F    spline interpolate recip. space projectors
   LCOMPAT=      F    compatible to vasp.4.4
   GGA_COMPAT  = T    GGA compatible to vasp.4.4-vasp.4.6
   LMAXPAW     = -100 max onsite density
   LMAXMIX     =    2 max onsite mixed and CHGCAR
   VOSKOWN=      0    Vosko Wilk Nusair interpolation
   ROPT   =   -0.00050
 Ionic relaxation
   EDIFFG = -.5E-01   stopping-criterion for IOM
   NSW    =    900    number of steps for IOM
   NBLOCK =      1;   KBLOCK =    900    inner block; outer block 
   IBRION =      2    ionic relax: 0-MD 1-quasi-New 2-CG
   NFREE  =      1    steps in history (QN), initial steepest desc. (CG)
   ISIF   =      2    stress and relaxation
   IWAVPR =     11    prediction:  0-non 1-charg 2-wave 3-comb
   ISYM   =      2    0-nonsym 1-usesym 2-fastsym
   LCORR  =      T    Harris-Foulkes like correction to forces

   POTIM  = 0.2000    time-step for ionic-motion
   TEIN   =    0.0    initial temperature
   TEBEG  =    0.0;   TEEND  =   0.0 temperature during run
   SMASS  =  -3.00    Nose mass-parameter (am)
   estimated Nose-frequenzy (Omega)   =  0.10E-29 period in steps =****** mass=  -0.162E-26a.u.
   SCALEE = 1.0000    scale energy and forces
   NPACO  =    256;   APACO  = 16.0  distance and # of slots for P.C.
   PSTRESS=    0.0 pullay stress

  Mass of Ions in am
   POMASS = 195.08
  Ionic Valenz
   ZVAL   =  10.00
  Atomic Wigner-Seitz radii
   RWIGS  =  -1.00
  virtual crystal weights 
   VCA    =   1.00
   NELECT =     360.0000    total number of electrons
   NUPDOWN=      -1.0000    fix difference up-down

 DOS related values:
   EMIN   =  10.00;   EMAX   =-10.00  energy-range for DOS
   EFERMI =   0.00
   ISMEAR =     1;   SIGMA  =   0.10  broadening in eV -4-tet -1-fermi 0-gaus

 Electronic relaxation 2 (details)
   IALGO  =     68    algorithm
   LDIAG  =      T    sub-space diagonalisation (order eigenvalues)
   LSUBROT=      F    optimize rotation matrix (better conditioning)
   TURBO    =      0    0=normal 1=particle mesh
   IRESTART =      0    0=no restart 2=restart with 2 vectors
   NREBOOT  =      0    no. of reboots
   NMIN     =      0    reboot dimension
   EREF     =   0.00    reference energy to select bands
   IMIX   =      4    mixing-type and parameters
     AMIX     =   0.40;   BMIX     =  1.00
     AMIX_MAG =   1.60;   BMIX_MAG =  1.00
     AMIN     =   0.10
     WC   =   100.;   INIMIX=   1;  MIXPRE=   1;  MAXMIX= -45

 Intra band minimization:
   WEIMIN = 0.0010     energy-eigenvalue tresh-hold
   EBREAK =  0.12E-06  absolut break condition
   DEPER  =   0.30     relativ break condition  

   TIME   =   0.40     timestep for ELM

  volume/ion in A,a.u.               =      28.79       194.30
  Fermi-wavevector in a.u.,A,eV,Ry     =   1.150754  2.174610 18.017305  1.324235
  Thomas-Fermi vector in A             =   2.287416
 
 Write flags
   LWAVE  =      F    write WAVECAR
   LCHARG =      F    write CHGCAR
   LVTOT  =      F    write LOCPOT, total local potential
   LVHAR  =      F    write LOCPOT, Hartree potential only
   LELF   =      F    write electronic localiz. function (ELF)
   LORBIT =      0    0 simple, 1 ext, 2 COOP (PROOUT)


 Dipole corrections
   LMONO  =      F    monopole corrections only (constant potential shift)
   LDIPOL =      F    correct potential (dipole corrections)
   IDIPOL =      0    1-x, 2-y, 3-z, 4-all directions 
   EPSILON=  1.0000000 bulk dielectric constant

 Exchange correlation treatment:
   GGA     =    --    GGA type
   LEXCH   =     8    internal setting for exchange type
   VOSKOWN=      0    Vosko Wilk Nusair interpolation
   LHFCALC =     F    Hartree Fock is set to
   LHFONE  =     F    Hartree Fock one center treatment
   AEXX    =    0.0000 exact exchange contribution

 Linear response parameters
   LEPSILON=     F    determine dielectric tensor
   LRPA    =     F    only Hartree local field effects (RPA)
   LNABLA  =     F    use nabla operator in PAW spheres
   LVEL    =     F    velocity operator in full k-point grid
   LINTERFAST=   F  fast interpolation
   KINTER  =     0    interpolate to denser k-point grid
   CSHIFT  =0.1000    complex shift for real part using Kramers Kronig
   OMEGAMAX=  -1.0    maximum frequency
   DEG_THRESHOLD= 0.2000000E-02 threshold for treating states as degnerate
   RTIME   =    0.100 relaxation time in fs

 Orbital magnetization related:
   ORBITALMAG=     F  switch on orbital magnetization
   LCHIMAG   =     F  perturbation theory with respect to B field
   DQ        =  0.001000  dq finite difference perturbation B field



--------------------------------------------------------------------------------------------------------


 conjugate gradient relaxation of ions
   using selective dynamics as specified on POSCAR
 charge density and potential will be updated during run
 non-spin polarized calculation
 RMM-DIIS sequential band-by-band and
  variant of blocked Davidson during initial phase
 perform sub-space diagonalisation
    before iterative eigenvector-optimisation
 modified Broyden-mixing scheme, WC =      100.0
 initial mixing is a Kerker type mixing with AMIX =  0.4000 and BMIX =      1.0000
 Hartree-type preconditioning will be used
 using additional bands           36
 real space projection scheme for non local part
 use partial core corrections
 calculate Harris-corrections to forces 
   (improved forces if not selfconsistent)
 use gradient corrections 
 use of overlap-Matrix (Vanderbilt PP)
 Methfessel and Paxton  Order N= 1 SIGMA  =   0.10


--------------------------------------------------------------------------------------------------------


  energy-cutoff  :      450.00
  volume of cell :     1036.52
      direct lattice vectors                 reciprocal lattice vectors
     7.293214350 -4.210739270  0.000000000     0.137113754  0.000000000  0.000000000
     0.000000000  8.421478530  0.000000000     0.068556877  0.118743994  0.000000000
     0.000000000  0.000000000 16.876108430     0.000000000  0.000000000  0.059255367

  length of vectors
     8.421478537  8.421478530 16.876108430     0.137113754  0.137113754  0.059255367


 
 k-points in units of 2pi/SCALE and weight: mesh auto                               
   0.00000000  0.00000000  0.00000000       0.111
   0.04570458  0.00000000  0.00000000       0.667
   0.06855688  0.03958133  0.00000000       0.222
 
 k-points in reciprocal lattice and weights: mesh auto                               
   0.00000000  0.00000000  0.00000000       0.111
   0.33333333  0.00000000  0.00000000       0.667
   0.33333333  0.33333333  0.00000000       0.222
 
 position of ions in fractional coordinates (direct lattice) 
   0.24466667  0.22400000  0.13581544
   0.02244444  0.11288889  0.27163089
   0.13355555  0.00177777  0.00000000
   0.13355555  0.00177777  0.40744633
   0.57800000  0.22400000  0.13581544
   0.35577778  0.11288889  0.27163089
   0.46688889  0.00177777  0.00000000
   0.46688889  0.00177777  0.40744633
   0.91133333  0.22400000  0.13581544
   0.68911111  0.11288889  0.27163089
   0.80022222  0.00177777  0.00000000
   0.80022222  0.00177777  0.40744633
   0.24466667  0.55733333  0.13581544
   0.02244444  0.44622222  0.27163089
   0.13355555  0.33511111  0.00000000
   0.13355555  0.33511111  0.40744633
   0.57800000  0.55733333  0.13581544
   0.35577778  0.44622222  0.27163089
   0.46688889  0.33511111  0.00000000
   0.46688889  0.33511111  0.40744633
   0.91133333  0.55733333  0.13581544
   0.68911111  0.44622222  0.27163089
   0.80022222  0.33511111  0.00000000
   0.80022222  0.33511111  0.40744633
   0.24466667  0.89066666  0.13581544
   0.02244444  0.77955555  0.27163089
   0.13355555  0.66844444  0.00000000
   0.13355555  0.66844444  0.40744633
   0.57800000  0.89066666  0.13581544
   0.35577778  0.77955555  0.27163089
   0.46688889  0.66844444  0.00000000
   0.46688889  0.66844444  0.40744633
   0.91133333  0.89066666  0.13581544
   0.68911111  0.77955555  0.27163089
   0.80022222  0.66844444  0.00000000
   0.80022222  0.66844444  0.40744633
 
 position of ions in cartesian coordinates  (Angst):
   1.78440644  0.85618363  2.29203614
   0.16369214  0.85618363  4.58407229
   0.97404929 -0.54739613  0.00000000
   0.97404929 -0.54739613  6.87610843
   4.21547789 -0.54739613  2.29203614
   2.59476359 -0.54739613  4.58407229
   3.40512074 -1.95097588  0.00000000
   3.40512074 -1.95097588  6.87610843
   6.64654934 -1.95097589  2.29203614
   5.02583504 -1.95097588  4.58407229
   5.83619219 -3.35455564  0.00000000
   5.83619219 -3.35455564  6.87610843
   1.78440644  3.66334314  2.29203614
   0.16369214  3.66334314  4.58407229
   0.97404929  2.25976338  0.00000000
   0.97404929  2.25976338  6.87610843
   4.21547789  2.25976338  2.29203614
   2.59476359  2.25976338  4.58407229
   3.40512074  0.85618363  0.00000000
   3.40512074  0.85618363  6.87610843
   6.64654934  0.85618362  2.29203614
   5.02583504  0.85618363  4.58407229
   5.83619219 -0.54739613  0.00000000
   5.83619219 -0.54739613  6.87610843
   1.78440644  6.47050265  2.29203614
   0.16369214  6.47050265  4.58407229
   0.97404929  5.06692289  0.00000000
   0.97404929  5.06692289  6.87610843
   4.21547789  5.06692289  2.29203614
   2.59476359  5.06692289  4.58407229
   3.40512074  3.66334314  0.00000000
   3.40512074  3.66334314  6.87610843
   6.64654934  3.66334313  2.29203614
   5.02583504  3.66334314  4.58407229
   5.83619219  2.25976338  0.00000000
   5.83619219  2.25976338  6.87610843
 


--------------------------------------------------------------------------------------------------------


 k-point  1 :   0.0000 0.0000 0.0000  plane waves:   22577
 k-point  2 :   0.3333 0.0000 0.0000  plane waves:   22465
 k-point  3 :   0.3333 0.3333 0.0000  plane waves:   22482

 maximum and minimum number of plane-waves per node :      3782     3726

 maximum number of plane-waves:     22577
 maximum index in each direction: 
   IXMAX=   14   IYMAX=   14   IZMAX=   29
   IXMIN=  -14   IYMIN=  -14   IZMIN=  -29

 WARNING: aliasing errors must be expected set NGX to  58 to avoid them
 WARNING: aliasing errors must be expected set NGY to  58 to avoid them
 WARNING: aliasing errors must be expected set NGZ to 118 to avoid them
 aliasing errors are usually negligible using standard VASP settings
 and one can safely disregard these warnings

 real space projection operators:
  total allocation   :      16901.16 KBytes
  max/ min on nodes  :       2826.14       2807.58


 parallel 3D FFT for wavefunctions:
    minimum data exchange during FFTs selected (reduces bandwidth)
 parallel 3D FFT for charge:
    minimum data exchange during FFTs selected (reduces bandwidth)


 total amount of memory used by VASP on root node    69470. kBytes
========================================================================

   base      :      30000. kBytes
   nonlr-proj:       5568. kBytes
   fftplans  :       5737. kBytes
   grid      :       8073. kBytes
   one-center:         93. kBytes
   wavefun   :      19999. kBytes
 
     INWAV:  cpu time    0.0000: real time    0.0001
 Broyden mixing: mesh for mixing (old mesh)
   NGX = 29   NGY = 29   NGZ = 59
  (NGX  = 96   NGY  = 96   NGZ  =180)
  gives a total of  49619 points

 initial charge density was supplied:
 charge density of overlapping atoms calculated
 number of electron     360.0000000 magnetization 
 keeping initial charge density in first step


--------------------------------------------------------------------------------------------------------


 Maximum index for non-local projection operator          566
 Maximum index for augmentation-charges         1034 (set IRDMAX)


--------------------------------------------------------------------------------------------------------


 First call to EWALD:  gamma=   0.175
 Maximum number of real-space cells 4x 4x 2
 Maximum number of reciprocal cells 2x 2x 4

 FEWALD executed in parallel
    FEWALD:  cpu time    0.0020: real time    0.0023


----------------------------------------- Iteration    1(   1)  ---------------------------------------


    POTLOK:  cpu time    0.1600: real time    0.1617
    SETDIJ:  cpu time    0.0170: real time    0.0165
     EDDAV:  cpu time    7.4969: real time    7.4974
       DOS:  cpu time    0.0020: real time    0.0021
    --------------------------------------------
      LOOP:  cpu time    7.6808: real time    7.6833

 eigenvalue-minimisations  :  1296
 total energy-change (2. order) : 0.3798392E+04  (-0.1434363E+05)
 number of electron     360.0000000 magnetization 
 augmentation part      360.0000000 magnetization 

 Free energy of the ion-electron system (eV)
  ---------------------------------------------------
  alpha Z        PSCENC =      1819.17414716
  Ewald energy   TEWEN  =     30275.10213523
  -Hartree energ DENC   =    -59311.03081448
  -exchange      EXHF   =         0.00000000
  -V(xc)+E(xc)   XCENC  =       120.54807104
  PAW double counting   =     20636.83775702   -19618.63634082
  entropy T*S    EENTRO =         0.01372883
  eigenvalues    EBANDS =      3628.35242773
  atomic energy  EATOM  =     26248.03046742
  Solvation  Ediel_sol  =         0.00000000
  ---------------------------------------------------
  free energy    TOTEN  =      3798.39157913 eV

  energy without entropy =     3798.37785030  energy(sigma->0) =     3798.38700286


--------------------------------------------------------------------------------------------------------




----------------------------------------- Iteration    1(   2)  ---------------------------------------


     EDDAV:  cpu time    8.0178: real time    8.0186
       DOS:  cpu time    0.0030: real time    0.0023
    --------------------------------------------
      LOOP:  cpu time    8.0218: real time    8.0232

 eigenvalue-minimisations  :  1304
 total energy-change (2. order) :-0.3635560E+04  (-0.3424284E+04)
 number of electron     360.0000000 magnetization 
 augmentation part      360.0000000 magnetization 

 Free energy of the ion-electron system (eV)
  ---------------------------------------------------
  alpha Z        PSCENC =      1819.17414716
  Ewald energy   TEWEN  =     30275.10213523
  -Hartree energ DENC   =    -59311.03081448
  -exchange      EXHF   =         0.00000000
  -V(xc)+E(xc)   XCENC  =       120.54807104
  PAW double counting   =     20636.83775702   -19618.63634082
  entropy T*S    EENTRO =         0.00779418
  eigenvalues    EBANDS =        -7.20119962
  atomic energy  EATOM  =     26248.03046742
  Solvation  Ediel_sol  =         0.00000000
  ---------------------------------------------------
  free energy    TOTEN  =       162.83201712 eV

  energy without entropy =      162.82422294  energy(sigma->0) =      162.82941906


--------------------------------------------------------------------------------------------------------




----------------------------------------- Iteration    1(   3)  ---------------------------------------


     EDDAV:  cpu time    9.6055: real time    9.6074
       DOS:  cpu time    0.0020: real time    0.0023
    --------------------------------------------
      LOOP:  cpu time    9.6085: real time    9.6230

 eigenvalue-minimisations  :  1616
 total energy-change (2. order) :-0.3553671E+03  (-0.3210977E+03)
 number of electron     360.0000000 magnetization 
 augmentation part      360.0000000 magnetization 

 Free energy of the ion-electron system (eV)
  ---------------------------------------------------
  alpha Z        PSCENC =      1819.17414716
  Ewald energy   TEWEN  =     30275.10213523
  -Hartree energ DENC   =    -59311.03081448
  -exchange      EXHF   =         0.00000000
  -V(xc)+E(xc)   XCENC  =       120.54807104
  PAW double counting   =     20636.83775702   -19618.63634082
  entropy T*S    EENTRO =        -0.02519860
  eigenvalues    EBANDS =      -362.53535481
  atomic energy  EATOM  =     26248.03046742
  Solvation  Ediel_sol  =         0.00000000
  ---------------------------------------------------
  free energy    TOTEN  =      -192.53513085 eV

  energy without entropy =     -192.50993225  energy(sigma->0) =     -192.52673132


--------------------------------------------------------------------------------------------------------




----------------------------------------- Iteration    1(   4)  ---------------------------------------


     EDDAV:  cpu time   11.4323: real time   11.4381
       DOS:  cpu time    0.0020: real time    0.0024
    --------------------------------------------
      LOOP:  cpu time   11.4353: real time   11.4533

 eigenvalue-minimisations  :  1816
 total energy-change (2. order) :-0.2741361E+02  (-0.2493825E+02)
 number of electron     360.0000000 magnetization 
 augmentation part      360.0000000 magnetization 

 Free energy of the ion-electron system (eV)
  ---------------------------------------------------
  alpha Z        PSCENC =      1819.17414716
  Ewald energy   TEWEN  =     30275.10213523
  -Hartree energ DENC   =    -59311.03081448
  -exchange      EXHF   =         0.00000000
  -V(xc)+E(xc)   XCENC  =       120.54807104
  PAW double counting   =     20636.83775702   -19618.63634082
  entropy T*S    EENTRO =        -0.05135570
  eigenvalues    EBANDS =      -389.92280699
  atomic energy  EATOM  =     26248.03046742
  Solvation  Ediel_sol  =         0.00000000
  ---------------------------------------------------
  free energy    TOTEN  =      -219.94874012 eV

  energy without entropy =     -219.89738442  energy(sigma->0) =     -219.93162156


--------------------------------------------------------------------------------------------------------




----------------------------------------- Iteration    1(   5)  ---------------------------------------


     EDDAV:  cpu time   10.0335: real time   10.0350
       DOS:  cpu time    0.0020: real time    0.0024
    CHARGE:  cpu time    0.5349: real time    0.5350
    MIXING:  cpu time    0.0050: real time    0.0045
    --------------------------------------------
      LOOP:  cpu time   10.5774: real time   10.5910

 eigenvalue-minimisations  :  1792
 total energy-change (2. order) :-0.7352941E+00  (-0.7238881E+00)
 number of electron     359.9999986 magnetization 
 augmentation part      105.3903588 magnetization 

 Broyden mixing:
  rms(total) = 0.22950E+01    rms(broyden)= 0.22949E+01
  rms(prec ) = 0.26814E+01
  weight for this iteration     100.00

 Free energy of the ion-electron system (eV)
  ---------------------------------------------------
  alpha Z        PSCENC =      1819.17414716
  Ewald energy   TEWEN  =     30275.10213523
  -Hartree energ DENC   =    -59311.03081448
  -exchange      EXHF   =         0.00000000
  -V(xc)+E(xc)   XCENC  =       120.54807104
  PAW double counting   =     20636.83775702   -19618.63634082
  entropy T*S    EENTRO =        -0.05212243
  eigenvalues    EBANDS =      -390.65733437
  atomic energy  EATOM  =     26248.03046742
  Solvation  Ediel_sol  =         0.00000000
  ---------------------------------------------------
  free energy    TOTEN  =      -220.68403424 eV

  energy without entropy =     -220.63191181  energy(sigma->0) =     -220.66666009


--------------------------------------------------------------------------------------------------------




----------------------------------------- Iteration    1(   6)  ---------------------------------------


    POTLOK:  cpu time    0.1490: real time    0.1487
    SETDIJ:  cpu time    0.0170: real time    0.0170
    EDDIAG:  cpu time    1.4818: real time    1.4826
  RMM-DIIS:  cpu time    4.5613: real time    4.5618
    ORTHCH:  cpu time    0.2920: real time    0.2924
       DOS:  cpu time    0.0030: real time    0.0022
    CHARGE:  cpu time    0.3819: real time    0.3825
    MIXING:  cpu time    0.0030: real time    0.0030
    --------------------------------------------
      LOOP:  cpu time    6.8890: real time    6.9028

 eigenvalue-minimisations  :  1303
 total energy-change (2. order) : 0.7374667E+01  (-0.3723620E+01)
 number of electron     359.9999995 magnetization 
 augmentation part      111.5344696 magnetization 

 Broyden mixing:
  rms(total) = 0.16423E+01    rms(broyden)= 0.16422E+01
  rms(prec ) = 0.27358E+01
  weight for this iteration     100.00

 eigenvalues of (default mixing * dielectric matrix)
  average eigenvalue GAMMA=   0.7331
  0.7331

 Free energy of the ion-electron system (eV)
  ---------------------------------------------------
  alpha Z        PSCENC =      1819.17414716
  Ewald energy   TEWEN  =     30275.10213523
  -Hartree energ DENC   =    -58929.03141410
  -exchange      EXHF   =         0.00000000
  -V(xc)+E(xc)   XCENC  =       111.15659380
  PAW double counting   =     20534.17624675   -19561.03864177
  entropy T*S    EENTRO =        -0.03137054
  eigenvalues    EBANDS =      -710.84753158
  atomic energy  EATOM  =     26248.03046742
  Solvation  Ediel_sol  =         0.00000000
  ---------------------------------------------------
  free energy    TOTEN  =      -213.30936763 eV

  energy without entropy =     -213.27799709  energy(sigma->0) =     -213.29891079


--------------------------------------------------------------------------------------------------------




----------------------------------------- Iteration    1(   7)  ---------------------------------------


    POTLOK:  cpu time    0.1170: real time    0.1166
    SETDIJ:  cpu time    0.0140: real time    0.0140
    EDDIAG:  cpu time    1.1108: real time    1.1111
  RMM-DIIS:  cpu time    4.0034: real time    4.0043
    ORTHCH:  cpu time    0.3429: real time    0.3431
       DOS:  cpu time    0.0020: real time    0.0024
    CHARGE:  cpu time    0.5329: real time    0.5323
    MIXING:  cpu time    0.0040: real time    0.0044
    --------------------------------------------
      LOOP:  cpu time    6.1271: real time    6.1407

 eigenvalue-minimisations  :  1311
 total energy-change (2. order) :-0.1532459E+01  (-0.1807750E+01)
 number of electron     359.9999983 magnetization 
 augmentation part      111.7013777 magnetization 

 Broyden mixing:
  rms(total) = 0.17448E+01    rms(broyden)= 0.17446E+01
  rms(prec ) = 0.27898E+01
  weight for this iteration     100.00

 eigenvalues of (default mixing * dielectric matrix)
  average eigenvalue GAMMA=   0.7517
  1.2716  0.2319

 Free energy of the ion-electron system (eV)
  ---------------------------------------------------
  alpha Z        PSCENC =      1819.17414716
  Ewald energy   TEWEN  =     30275.10213523
  -Hartree energ DENC   =    -59037.22572318
  -exchange      EXHF   =         0.00000000
  -V(xc)+E(xc)   XCENC  =       109.69439581
  PAW double counting   =     20626.46388447   -19662.23606543
  entropy T*S    EENTRO =        -0.06277456
  eigenvalues    EBANDS =      -593.78229318
  atomic energy  EATOM  =     26248.03046742
  Solvation  Ediel_sol  =         0.00000000
  ---------------------------------------------------
  free energy    TOTEN  =      -214.84182626 eV

  energy without entropy =     -214.77905169  energy(sigma->0) =     -214.82090140


--------------------------------------------------------------------------------------------------------




----------------------------------------- Iteration    1(   8)  ---------------------------------------


    POTLOK:  cpu time    0.1510: real time    0.1503
    SETDIJ:  cpu time    0.0170: real time    0.0169
    EDDIAG:  cpu time    1.4868: real time    1.4871
  RMM-DIIS:  cpu time    4.6143: real time    4.6149
    ORTHCH:  cpu time    0.3409: real time    0.3411
       DOS:  cpu time    0.0030: real time    0.0023
    CHARGE:  cpu time    0.5229: real time    0.5234
    MIXING:  cpu time    0.0050: real time    0.0050
    --------------------------------------------
      LOOP:  cpu time    7.1409: real time    7.1545

 eigenvalue-minimisations  :  1311
 total energy-change (2. order) : 0.7377317E+01  (-0.3643609E+00)
 number of electron     359.9999988 magnetization 
 augmentation part      113.0010904 magnetization 

 Broyden mixing:
  rms(total) = 0.27301E+00    rms(broyden)= 0.27291E+00
  rms(prec ) = 0.34504E+00
  weight for this iteration     100.00

 eigenvalues of (default mixing * dielectric matrix)
  average eigenvalue GAMMA=   0.8327
  1.3311  0.9202  0.2468

 Free energy of the ion-electron system (eV)
  ---------------------------------------------------
  alpha Z        PSCENC =      1819.17414716
  Ewald energy   TEWEN  =     30275.10213523
  -Hartree energ DENC   =    -58944.28535285
  -exchange      EXHF   =         0.00000000
  -V(xc)+E(xc)   XCENC  =       108.17769817
  PAW double counting   =     20796.41892690   -19848.20915113
  entropy T*S    EENTRO =        -0.04089484
  eigenvalues    EBANDS =      -661.83248542
  atomic energy  EATOM  =     26248.03046742
  Solvation  Ediel_sol  =         0.00000000
  ---------------------------------------------------
  free energy    TOTEN  =      -207.46450935 eV

  energy without entropy =     -207.42361451  energy(sigma->0) =     -207.45087774


--------------------------------------------------------------------------------------------------------




----------------------------------------- Iteration    1(   9)  ---------------------------------------


    POTLOK:  cpu time    0.1520: real time    0.1524
    SETDIJ:  cpu time    0.0160: real time    0.0163
    EDDIAG:  cpu time    1.4858: real time    1.4857
  RMM-DIIS:  cpu time    4.4393: real time    4.4404
    ORTHCH:  cpu time    0.3110: real time    0.3110
       DOS:  cpu time    0.0020: real time    0.0023
    CHARGE:  cpu time    0.4319: real time    0.4320
    MIXING:  cpu time    0.0050: real time    0.0044
    --------------------------------------------
      LOOP:  cpu time    6.8430: real time    6.8571

 eigenvalue-minimisations  :  1472
 total energy-change (2. order) : 0.1037022E+00  (-0.6641231E-01)
 number of electron     359.9999989 magnetization 
 augmentation part      113.0382799 magnetization 

 Broyden mixing:
  rms(total) = 0.13269E+00    rms(broyden)= 0.13265E+00
  rms(prec ) = 0.16162E+00
  weight for this iteration     100.00

 eigenvalues of (default mixing * dielectric matrix)
  average eigenvalue GAMMA=   1.0863
  2.0203  0.2470  0.8074  1.2707

 Free energy of the ion-electron system (eV)
  ---------------------------------------------------
  alpha Z        PSCENC =      1819.17414716
  Ewald energy   TEWEN  =     30275.10213523
  -Hartree energ DENC   =    -58949.09304881
  -exchange      EXHF   =         0.00000000
  -V(xc)+E(xc)   XCENC  =       108.20559318
  PAW double counting   =     20960.19198576   -20017.49227554
  entropy T*S    EENTRO =        -0.00833310
  eigenvalues    EBANDS =      -651.47147850
  atomic energy  EATOM  =     26248.03046742
  Solvation  Ediel_sol  =         0.00000000
  ---------------------------------------------------
  free energy    TOTEN  =      -207.36080718 eV

  energy without entropy =     -207.35247408  energy(sigma->0) =     -207.35802948


--------------------------------------------------------------------------------------------------------




----------------------------------------- Iteration    1(  10)  ---------------------------------------


    POTLOK:  cpu time    0.1450: real time    0.1457
    SETDIJ:  cpu time    0.0170: real time    0.0168
    EDDIAG:  cpu time    1.4868: real time    1.4866
  RMM-DIIS:  cpu time    4.6633: real time    4.6647
    ORTHCH:  cpu time    0.3399: real time    0.3397
       DOS:  cpu time    0.0020: real time    0.0021
    CHARGE:  cpu time    0.5229: real time    0.5234
    MIXING:  cpu time    0.0060: real time    0.0055
    --------------------------------------------
      LOOP:  cpu time    7.1849: real time    7.1986

 eigenvalue-minimisations  :  1329
 total energy-change (2. order) :-0.3747802E-02  (-0.7474541E-02)
 number of electron     359.9999988 magnetization 
 augmentation part      112.9006433 magnetization 

 Broyden mixing:
  rms(total) = 0.18157E+00    rms(broyden)= 0.18157E+00
  rms(prec ) = 0.37135E+00
  weight for this iteration     100.00

 eigenvalues of (default mixing * dielectric matrix)
  average eigenvalue GAMMA=   0.9266
  2.0959  1.2544  0.8150  0.2485  0.2193

 Free energy of the ion-electron system (eV)
  ---------------------------------------------------
  alpha Z        PSCENC =      1819.17414716
  Ewald energy   TEWEN  =     30275.10213523
  -Hartree energ DENC   =    -58959.69218203
  -exchange      EXHF   =         0.00000000
  -V(xc)+E(xc)   XCENC  =       108.27592183
  PAW double counting   =     21114.89087481   -20176.73488453
  entropy T*S    EENTRO =        -0.02353573
  eigenvalues    EBANDS =      -636.38749915
  atomic energy  EATOM  =     26248.03046742
  Solvation  Ediel_sol  =         0.00000000
  ---------------------------------------------------
  free energy    TOTEN  =      -207.36455498 eV

  energy without entropy =     -207.34101926  energy(sigma->0) =     -207.35670974


--------------------------------------------------------------------------------------------------------




----------------------------------------- Iteration    1(  11)  ---------------------------------------


    POTLOK:  cpu time    0.1560: real time    0.1560
    SETDIJ:  cpu time    0.0160: real time    0.0165
    EDDIAG:  cpu time    1.4828: real time    1.4822
  RMM-DIIS:  cpu time    4.2044: real time    4.2048
    ORTHCH:  cpu time    0.3100: real time    0.3114
       DOS:  cpu time    0.0030: real time    0.0024
    CHARGE:  cpu time    0.4339: real time    0.4340
    MIXING:  cpu time    0.0050: real time    0.0050
    --------------------------------------------
      LOOP:  cpu time    6.6110: real time    6.6255

 eigenvalue-minimisations  :  1442
 total energy-change (2. order) : 0.3715883E-01  (-0.2067347E-02)
 number of electron     359.9999989 magnetization 
 augmentation part      112.8920928 magnetization 

 Broyden mixing:
  rms(total) = 0.75440E-01    rms(broyden)= 0.75423E-01
  rms(prec ) = 0.14592E+00
  weight for this iteration     100.00

 eigenvalues of (default mixing * dielectric matrix)
  average eigenvalue GAMMA=   0.9737
  2.3644  1.1835  1.1835  0.7642  0.2467  0.0996

 Free energy of the ion-electron system (eV)
  ---------------------------------------------------
  alpha Z        PSCENC =      1819.17414716
  Ewald energy   TEWEN  =     30275.10213523
  -Hartree energ DENC   =    -58960.43390625
  -exchange      EXHF   =         0.00000000
  -V(xc)+E(xc)   XCENC  =       108.27112813
  PAW double counting   =     21130.14773756   -20192.47275240
  entropy T*S    EENTRO =        -0.02465138
  eigenvalues    EBANDS =      -635.12170163
  atomic energy  EATOM  =     26248.03046742
  Solvation  Ediel_sol  =         0.00000000
  ---------------------------------------------------
  free energy    TOTEN  =      -207.32739616 eV

  energy without entropy =     -207.30274478  energy(sigma->0) =     -207.31917903


--------------------------------------------------------------------------------------------------------




----------------------------------------- Iteration    1(  12)  ---------------------------------------


    POTLOK:  cpu time    0.1370: real time    0.1373
    SETDIJ:  cpu time    0.0160: real time    0.0155
    EDDIAG:  cpu time    1.2418: real time    1.2418
  RMM-DIIS:  cpu time    4.7493: real time    4.7502
    ORTHCH:  cpu time    0.3429: real time    0.3427
       DOS:  cpu time    0.0020: real time    0.0022
    CHARGE:  cpu time    0.5269: real time    0.5272
    MIXING:  cpu time    0.0070: real time    0.0064
    --------------------------------------------
      LOOP:  cpu time    7.0229: real time    7.0366

 eigenvalue-minimisations  :  1355
 total energy-change (2. order) : 0.8766246E-02  (-0.6501465E-03)
 number of electron     359.9999989 magnetization 
 augmentation part      112.9313321 magnetization 

 Broyden mixing:
  rms(total) = 0.21215E-01    rms(broyden)= 0.21213E-01
  rms(prec ) = 0.29225E-01
  weight for this iteration     100.00

 eigenvalues of (default mixing * dielectric matrix)
  average eigenvalue GAMMA=   0.9144
  2.3953  1.2136  1.2136  0.7275  0.2467  0.5056  0.0988

 Free energy of the ion-electron system (eV)
  ---------------------------------------------------
  alpha Z        PSCENC =      1819.17414716
  Ewald energy   TEWEN  =     30275.10213523
  -Hartree energ DENC   =    -58960.95116082
  -exchange      EXHF   =         0.00000000
  -V(xc)+E(xc)   XCENC  =       108.18693794
  PAW double counting   =     21182.83757477   -20246.98519188
  entropy T*S    EENTRO =        -0.02573822
  eigenvalues    EBANDS =      -632.68780152
  atomic energy  EATOM  =     26248.03046742
  Solvation  Ediel_sol  =         0.00000000
  ---------------------------------------------------
  free energy    TOTEN  =      -207.31862991 eV

  energy without entropy =     -207.29289170  energy(sigma->0) =     -207.31005051


--------------------------------------------------------------------------------------------------------




----------------------------------------- Iteration    1(  13)  ---------------------------------------


    POTLOK:  cpu time    0.1570: real time    0.1574
    SETDIJ:  cpu time    0.0170: real time    0.0166
    EDDIAG:  cpu time    1.4838: real time    1.4841
  RMM-DIIS:  cpu time    4.9043: real time    4.9047
    ORTHCH:  cpu time    0.3429: real time    0.3429
       DOS:  cpu time    0.0020: real time    0.0023
    CHARGE:  cpu time    0.4519: real time    0.4519
    MIXING:  cpu time    0.0050: real time    0.0043
    --------------------------------------------
      LOOP:  cpu time    7.3639: real time    7.3775

 eigenvalue-minimisations  :  1390
 total energy-change (2. order) : 0.7099961E-03  (-0.1909708E-03)
 number of electron     359.9999989 magnetization 
 augmentation part      112.9402250 magnetization 

 Broyden mixing:
  rms(total) = 0.11860E-01    rms(broyden)= 0.11857E-01
  rms(prec ) = 0.16193E-01
  weight for this iteration     100.00

 eigenvalues of (default mixing * dielectric matrix)
  average eigenvalue GAMMA=   0.9699
  2.5123  1.5332  1.1069  1.1069  0.8457  0.2467  0.3088  0.0987

 Free energy of the ion-electron system (eV)
  ---------------------------------------------------
  alpha Z        PSCENC =      1819.17414716
  Ewald energy   TEWEN  =     30275.10213523
  -Hartree energ DENC   =    -58961.58419125
  -exchange      EXHF   =         0.00000000
  -V(xc)+E(xc)   XCENC  =       108.18803345
  PAW double counting   =     21187.47942784   -20251.68588171
  entropy T*S    EENTRO =        -0.02522288
  eigenvalues    EBANDS =      -631.99683519
  atomic energy  EATOM  =     26248.03046742
  Solvation  Ediel_sol  =         0.00000000
  ---------------------------------------------------
  free energy    TOTEN  =      -207.31791992 eV

  energy without entropy =     -207.29269704  energy(sigma->0) =     -207.30951229


--------------------------------------------------------------------------------------------------------




----------------------------------------- Iteration    1(  14)  ---------------------------------------


    POTLOK:  cpu time    0.1220: real time    0.1226
    SETDIJ:  cpu time    0.0150: real time    0.0141
    EDDIAG:  cpu time    1.0768: real time    1.0783
  RMM-DIIS:  cpu time    2.8586: real time    2.8591
    ORTHCH:  cpu time    0.3140: real time    0.3136
       DOS:  cpu time    0.0020: real time    0.0024
    CHARGE:  cpu time    0.4329: real time    0.4331
    MIXING:  cpu time    0.0050: real time    0.0057
    --------------------------------------------
      LOOP:  cpu time    4.8273: real time    4.8422

 eigenvalue-minimisations  :   950
 total energy-change (2. order) : 0.4036206E-03  (-0.4826092E-04)
 number of electron     359.9999989 magnetization 
 augmentation part      112.9437206 magnetization 

 Broyden mixing:
  rms(total) = 0.29729E-02    rms(broyden)= 0.29719E-02
  rms(prec ) = 0.58044E-02
  weight for this iteration     100.00

 eigenvalues of (default mixing * dielectric matrix)
  average eigenvalue GAMMA=   1.0546
  2.4949  2.0661  1.1479  1.1479  1.1679  0.8135  0.2467  0.3077  0.0987

 Free energy of the ion-electron system (eV)
  ---------------------------------------------------
  alpha Z        PSCENC =      1819.17414716
  Ewald energy   TEWEN  =     30275.10213523
  -Hartree energ DENC   =    -58963.90131479
  -exchange      EXHF   =         0.00000000
  -V(xc)+E(xc)   XCENC  =       108.20683891
  PAW double counting   =     21196.32523303   -20260.49690012
  entropy T*S    EENTRO =        -0.02391405
  eigenvalues    EBANDS =      -629.73420908
  atomic energy  EATOM  =     26248.03046742
  Solvation  Ediel_sol  =         0.00000000
  ---------------------------------------------------
  free energy    TOTEN  =      -207.31751630 eV

  energy without entropy =     -207.29360224  energy(sigma->0) =     -207.30954495


--------------------------------------------------------------------------------------------------------




----------------------------------------- Iteration    1(  15)  ---------------------------------------


    POTLOK:  cpu time    0.1390: real time    0.1390
    SETDIJ:  cpu time    0.0150: real time    0.0146
    EDDIAG:  cpu time    1.3858: real time    1.3859
  RMM-DIIS:  cpu time    3.0115: real time    3.0121
    ORTHCH:  cpu time    0.3429: real time    0.3426
       DOS:  cpu time    0.0020: real time    0.0024
    CHARGE:  cpu time    0.5239: real time    0.5242
    MIXING:  cpu time    0.0080: real time    0.0076
    --------------------------------------------
      LOOP:  cpu time    5.4282: real time    5.4414

 eigenvalue-minimisations  :   820
 total energy-change (2. order) : 0.1353061E-03  (-0.2704124E-04)
 number of electron     359.9999989 magnetization 
 augmentation part      112.9393138 magnetization 

 Broyden mixing:
  rms(total) = 0.19417E-02    rms(broyden)= 0.19416E-02
  rms(prec ) = 0.35506E-02
  weight for this iteration     100.00

 eigenvalues of (default mixing * dielectric matrix)
  average eigenvalue GAMMA=   1.1116
  2.5074  2.5074  1.3881  1.1682  1.1682  0.8740  0.8491  0.2467  0.3076  0.0987

 Free energy of the ion-electron system (eV)
  ---------------------------------------------------
  alpha Z        PSCENC =      1819.17414716
  Ewald energy   TEWEN  =     30275.10213523
  -Hartree energ DENC   =    -58967.00364170
  -exchange      EXHF   =         0.00000000
  -V(xc)+E(xc)   XCENC  =       108.23490672
  PAW double counting   =     21197.13601854   -20261.09120351
  entropy T*S    EENTRO =        -0.02389693
  eigenvalues    EBANDS =      -626.87631392
  atomic energy  EATOM  =     26248.03046742
  Solvation  Ediel_sol  =         0.00000000
  ---------------------------------------------------
  free energy    TOTEN  =      -207.31738099 eV

  energy without entropy =     -207.29348406  energy(sigma->0) =     -207.30941535


--------------------------------------------------------------------------------------------------------




----------------------------------------- Iteration    1(  16)  ---------------------------------------


    POTLOK:  cpu time    0.1570: real time    0.1574
    SETDIJ:  cpu time    0.0180: real time    0.0171
    EDDIAG:  cpu time    1.4798: real time    1.4805
  RMM-DIIS:  cpu time    2.7256: real time    2.7253
    ORTHCH:  cpu time    0.3419: real time    0.3419
       DOS:  cpu time    0.0020: real time    0.0023
    --------------------------------------------
      LOOP:  cpu time    4.7253: real time    4.7378

 eigenvalue-minimisations  :   726
 total energy-change (2. order) :-0.3265214E-04  (-0.9136501E-05)
 number of electron     359.9999989 magnetization 
 augmentation part      112.9393138 magnetization 

 Free energy of the ion-electron system (eV)
  ---------------------------------------------------
  alpha Z        PSCENC =      1819.17414716
  Ewald energy   TEWEN  =     30275.10213523
  -Hartree energ DENC   =    -58968.25910315
  -exchange      EXHF   =         0.00000000
  -V(xc)+E(xc)   XCENC  =       108.24030617
  PAW double counting   =     21196.02858268   -20259.95238470
  entropy T*S    EENTRO =        -0.02394810
  eigenvalues    EBANDS =      -625.65761636
  atomic energy  EATOM  =     26248.03046742
  Solvation  Ediel_sol  =         0.00000000
  ---------------------------------------------------
  free energy    TOTEN  =      -207.31741364 eV

  energy without entropy =     -207.29346555  energy(sigma->0) =     -207.30943094


--------------------------------------------------------------------------------------------------------




 average (electrostatic) potential at core
  the test charge radii are     1.2059
  (the norm of the test charge is              1.0000)
       1 -55.3752       2 -55.3752       3 -54.8826       4 -54.8827       5 -55.3752
       6 -55.3752       7 -54.8826       8 -54.8827       9 -55.3752      10 -55.3752
      11 -54.8826      12 -54.8827      13 -55.3752      14 -55.3752      15 -54.8826
      16 -54.8827      17 -55.3752      18 -55.3752      19 -54.8826      20 -54.8827
      21 -55.3752      22 -55.3752      23 -54.8826      24 -54.8827      25 -55.3752
      26 -55.3752      27 -54.8826      28 -54.8827      29 -55.3752      30 -55.3752
      31 -54.8826      32 -54.8827      33 -55.3752      34 -55.3752      35 -54.8826
      36 -54.8827
 
 
 
 E-fermi :   1.3434     XC(G=0):  -8.2475     alpha+bet : -6.9436


 k-point     1 :       0.0000    0.0000    0.0000
  band No.  band energies     occupation 
      1      -7.9150      2.00000
      2      -6.6114      2.00000
      3      -5.4702      2.00000
      4      -5.4059      2.00000
      5      -5.4059      2.00000
      6      -5.4059      2.00000
      7      -5.4059      2.00000
      8      -5.4059      2.00000
      9      -5.4059      2.00000
     10      -5.3995      2.00000
     11      -4.8234      2.00000
     12      -4.8234      2.00000
     13      -4.8234      2.00000
     14      -4.8234      2.00000
     15      -4.8234      2.00000
     16      -4.8234      2.00000
     17      -4.3165      2.00000
     18      -4.3165      2.00000
     19      -4.3165      2.00000
     20      -4.3165      2.00000
     21      -4.3165      2.00000
     22      -4.3165      2.00000
     23      -4.0975      2.00000
     24      -4.0975      2.00000
     25      -4.0975      2.00000
     26      -4.0975      2.00000
     27      -4.0975      2.00000
     28      -4.0975      2.00000
     29      -3.8445      2.00000
     30      -3.8445      2.00000
     31      -3.8445      2.00000
     32      -3.8445      2.00000
     33      -3.8445      2.00000
     34      -3.8445      2.00000
     35      -3.8292      2.00000
     36      -3.8292      2.00000
     37      -3.8292      2.00000
     38      -3.8292      2.00000
     39      -3.7512      2.00000
     40      -3.7512      2.00000
     41      -3.2078      2.00000
     42      -3.2078      2.00000
     43      -3.2078      2.00000
     44      -3.2078      2.00000
     45      -3.1332      2.00000
     46      -3.1332      2.00000
     47      -3.1332      2.00000
     48      -3.1332      2.00000
     49      -3.1331      2.00000
     50      -3.1331      2.00000
     51      -2.9700      2.00000
     52      -2.9700      2.00000
     53      -2.9123      2.00000
     54      -2.9123      2.00000
     55      -2.3285      2.00000
     56      -2.3285      2.00000
     57      -2.3285      2.00000
     58      -2.3285      2.00000
     59      -2.3285      2.00000
     60      -2.3285      2.00000
     61      -2.2921      2.00000
     62      -2.1464      2.00000
     63      -2.1464      2.00000
     64      -2.1464      2.00000
     65      -2.1464      2.00000
     66      -2.1133      2.00000
     67      -2.1133      2.00000
     68      -2.1117      2.00000
     69      -2.1117      2.00000
     70      -2.1117      2.00000
     71      -2.1117      2.00000
     72      -2.1117      2.00000
     73      -2.1117      2.00000
     74      -2.0961      2.00000
     75      -2.0181      2.00000
     76      -2.0181      2.00000
     77      -1.8830      2.00000
     78      -1.8830      2.00000
     79      -1.8830      2.00000
     80      -1.8830      2.00000
     81      -1.8830      2.00000
     82      -1.8830      2.00000
     83      -1.6600      2.00000
     84      -1.6600      2.00000
     85      -1.6600      2.00000
     86      -1.6600      2.00000
     87      -1.6600      2.00000
     88      -1.6600      2.00000
     89      -1.5956      2.00000
     90      -1.5956      2.00000
     91      -1.4977      2.00000
     92      -1.4977      2.00000
     93      -1.4462      2.00000
     94      -1.4462      2.00000
     95      -1.4462      2.00000
     96      -1.4462      2.00000
     97      -1.3839      2.00000
     98      -1.3839      2.00000
     99      -1.3839      2.00000
    100      -1.3839      2.00000
    101      -1.2805      2.00000
    102      -1.2460      2.00000
    103      -1.2460      2.00000
    104      -1.2460      2.00000
    105      -1.2460      2.00000
    106      -1.2460      2.00000
    107      -1.2460      2.00000
    108      -0.7076      2.00000
    109      -0.7076      2.00000
    110      -0.7076      2.00000
    111      -0.7076      2.00000
    112      -0.7076      2.00000
    113      -0.7076      2.00000
    114      -0.6866      2.00000
    115      -0.6866      2.00000
    116      -0.6866      2.00000
    117      -0.6866      2.00000
    118      -0.6866      2.00000
    119      -0.6866      2.00000
    120      -0.5651      2.00000
    121      -0.5651      2.00000
    122      -0.4564      2.00000
    123      -0.4564      2.00000
    124      -0.4564      2.00000
    125      -0.4564      2.00000
    126      -0.4564      2.00000
    127      -0.4564      2.00000
    128      -0.1631      2.00000
    129      -0.1631      2.00000
    130      -0.1631      2.00000
    131      -0.1631      2.00000
    132      -0.1463      2.00000
    133      -0.1463      2.00000
    134       0.1055      2.00000
    135       0.1055      2.00000
    136       0.1055      2.00000
    137       0.1055      2.00000
    138       0.1055      2.00000
    139       0.1055      2.00000
    140       0.1762      2.00000
    141       0.1762      2.00000
    142       0.3346      2.00000
    143       0.3346      2.00000
    144       0.3346      2.00000
    145       0.3346      2.00000
    146       0.3346      2.00000
    147       0.3346      2.00000
    148       0.5574      2.00000
    149       0.5574      2.00000
    150       0.5574      2.00000
    151       0.5574      2.00000
    152       0.5574      2.00000
    153       0.5574      2.00000
    154       0.5758      2.00000
    155       0.5758      2.00000
    156       0.5758      2.00000
    157       0.5758      2.00000
    158       0.5758      2.00000
    159       0.5758      2.00000
    160       0.7464      2.00000
    161       0.7464      2.00000
    162       0.7847      2.00000
    163       0.7847      2.00000
    164       0.7847      2.00000
    165       0.7847      2.00000
    166       0.7847      2.00000
    167       0.7847      2.00000
    168       0.8902      2.00000
    169       0.8902      2.00000
    170       0.8902      2.00000
    171       0.8902      2.00000
    172       0.8902      2.00000
    173       0.8902      2.00000
    174       0.9000      2.00000
    175       0.9000      2.00000
    176       1.0091      2.00002
    177       1.0091      2.00002
    178       1.0091      2.00002
    179       1.0091      2.00002
    180       1.0091      2.00002
    181       1.0091      2.00002
    182       1.0226      2.00006
    183       1.0818      2.00136
    184       1.0818      2.00136
    185       1.0830      2.00143
    186       1.0830      2.00143
    187       1.0830      2.00144
    188       1.0830      2.00144
    189       1.3359      1.12783
    190       1.3359      1.12781
    191       1.4458     -0.05477
    192       1.4458     -0.05477
    193       1.4458     -0.05477
    194       1.4458     -0.05477
    195       1.4458     -0.05477
    196       1.4458     -0.05477
    197       2.0627     -0.00000
    198       2.2551     -0.00000
    199       2.2551     -0.00000
    200       2.2551     -0.00000
    201       2.2551     -0.00000
    202       2.2551     -0.00000
    203       2.2551     -0.00000
    204       4.5915      0.00000
    205       4.5915      0.00000
    206       4.5915      0.00000
    207       4.5915      0.00000
    208       4.5915      0.00000
    209       4.5915      0.00000
    210       6.1292      0.00000
    211       6.1333      0.00000
    212       6.1835      0.00000
    213       6.1847      0.00000
    214       6.1908      0.00000
    215       6.2281      0.00000
    216       6.5777      0.00000

 k-point     2 :       0.3333    0.0000    0.0000
  band No.  band energies     occupation 
      1      -7.5025      2.00000
      2      -6.4312      2.00000
      3      -6.2091      2.00000
      4      -5.5660      2.00000
      5      -5.5660      2.00000
      6      -5.2815      2.00000
      7      -5.1680      2.00000
      8      -5.0605      2.00000
      9      -5.0180      2.00000
     10      -4.9594      2.00000
     11      -4.9233      2.00000
     12      -4.9233      2.00000
     13      -4.6882      2.00000
     14      -4.6882      2.00000
     15      -4.6131      2.00000
     16      -4.6131      2.00000
     17      -4.5155      2.00000
     18      -4.3442      2.00000
     19      -4.2932      2.00000
     20      -4.2640      2.00000
     21      -4.2640      2.00000
     22      -4.2230      2.00000
     23      -4.2230      2.00000
     24      -4.2223      2.00000
     25      -4.2223      2.00000
     26      -4.1430      2.00000
     27      -4.1050      2.00000
     28      -4.0233      2.00000
     29      -4.0233      2.00000
     30      -3.9981      2.00000
     31      -3.9981      2.00000
     32      -3.7663      2.00000
     33      -3.7663      2.00000
     34      -3.7198      2.00000
     35      -3.7198      2.00000
     36      -3.7017      2.00000
     37      -3.7017      2.00000
     38      -3.5181      2.00000
     39      -3.5181      2.00000
     40      -3.3979      2.00000
     41      -3.3907      2.00000
     42      -3.3907      2.00000
     43      -3.2969      2.00000
     44      -3.2403      2.00000
     45      -3.2403      2.00000
     46      -3.2346      2.00000
     47      -3.2346      2.00000
     48      -3.0325      2.00000
     49      -3.0325      2.00000
     50      -2.9978      2.00000
     51      -2.9978      2.00000
     52      -2.9443      2.00000
     53      -2.9443      2.00000
     54      -2.8535      2.00000
     55      -2.8535      2.00000
     56      -2.7798      2.00000
     57      -2.7290      2.00000
     58      -2.5732      2.00000
     59      -2.5732      2.00000
     60      -2.5710      2.00000
     61      -2.4437      2.00000
     62      -2.4215      2.00000
     63      -2.3708      2.00000
     64      -2.3708      2.00000
     65      -2.3471      2.00000
     66      -2.3471      2.00000
     67      -2.3380      2.00000
     68      -2.2465      2.00000
     69      -2.1088      2.00000
     70      -2.1088      2.00000
     71      -2.0882      2.00000
     72      -2.0882      2.00000
     73      -2.0352      2.00000
     74      -2.0214      2.00000
     75      -2.0214      2.00000
     76      -1.9833      2.00000
     77      -1.9456      2.00000
     78      -1.9456      2.00000
     79      -1.8559      2.00000
     80      -1.8559      2.00000
     81      -1.8546      2.00000
     82      -1.8376      2.00000
     83      -1.8245      2.00000
     84      -1.8245      2.00000
     85      -1.8112      2.00000
     86      -1.8078      2.00000
     87      -1.8028      2.00000
     88      -1.7941      2.00000
     89      -1.7075      2.00000
     90      -1.7075      2.00000
     91      -1.6594      2.00000
     92      -1.6512      2.00000
     93      -1.6512      2.00000
     94      -1.4997      2.00000
     95      -1.4698      2.00000
     96      -1.4698      2.00000
     97      -1.4556      2.00000
     98      -1.4556      2.00000
     99      -1.4469      2.00000
    100      -1.3450      2.00000
    101      -1.3450      2.00000
    102      -1.3397      2.00000
    103      -1.3302      2.00000
    104      -1.3290      2.00000
    105      -1.2115      2.00000
    106      -1.1303      2.00000
    107      -1.1303      2.00000
    108      -1.0593      2.00000
    109      -1.0593      2.00000
    110      -1.0534      2.00000
    111      -1.0179      2.00000
    112      -0.8942      2.00000
    113      -0.8942      2.00000
    114      -0.7704      2.00000
    115      -0.7600      2.00000
    116      -0.7251      2.00000
    117      -0.7251      2.00000
    118      -0.7247      2.00000
    119      -0.6817      2.00000
    120      -0.6817      2.00000
    121      -0.6730      2.00000
    122      -0.6730      2.00000
    123      -0.5658      2.00000
    124      -0.5658      2.00000
    125      -0.5294      2.00000
    126      -0.5294      2.00000
    127      -0.5197      2.00000
    128      -0.4510      2.00000
    129      -0.3749      2.00000
    130      -0.3154      2.00000
    131      -0.3154      2.00000
    132      -0.3091      2.00000
    133      -0.1215      2.00000
    134      -0.1215      2.00000
    135      -0.1081      2.00000
    136      -0.1002      2.00000
    137      -0.0501      2.00000
    138      -0.0501      2.00000
    139       0.1006      2.00000
    140       0.1768      2.00000
    141       0.1768      2.00000
    142       0.1997      2.00000
    143       0.2001      2.00000
    144       0.2084      2.00000
    145       0.2084      2.00000
    146       0.2661      2.00000
    147       0.3122      2.00000
    148       0.3122      2.00000
    149       0.3976      2.00000
    150       0.3976      2.00000
    151       0.4591      2.00000
    152       0.5209      2.00000
    153       0.5222      2.00000
    154       0.5222      2.00000
    155       0.5326      2.00000
    156       0.5326      2.00000
    157       0.5997      2.00000
    158       0.5997      2.00000
    159       0.7627      2.00000
    160       0.7627      2.00000
    161       0.7857      2.00000
    162       0.8572      2.00000
    163       0.8572      2.00000
    164       0.8664      2.00000
    165       0.8932      2.00000
    166       0.9677      2.00000
    167       0.9677      2.00000
    168       0.9873      2.00001
    169       1.0688      2.00072
    170       1.0688      2.00072
    171       1.0714      2.00082
    172       1.0714      2.00082
    173       1.1927      2.05461
    174       1.2042      2.06408
    175       1.2042      2.06408
    176       1.2703      1.94061
    177       1.2703      1.94061
    178       1.2978      1.69075
    179       1.2978      1.69074
    180       1.3149      1.46113
    181       1.3551      0.80473
    182       1.3926      0.26880
    183       1.4472     -0.05719
    184       1.5171     -0.03398
    185       1.5362     -0.02006
    186       1.5362     -0.02006
    187       1.5567     -0.01017
    188       1.5567     -0.01017
    189       1.7439     -0.00000
    190       1.7629     -0.00000
    191       1.8030     -0.00000
    192       2.1576     -0.00000
    193       2.1576     -0.00000
    194       2.2126     -0.00000
    195       2.2483     -0.00000
    196       2.2483     -0.00000
    197       2.5517     -0.00000
    198       2.5517     -0.00000
    199       2.7042     -0.00000
    200       3.4325     -0.00000
    201       3.4989     -0.00000
    202       3.5679     -0.00000
    203       3.6008     -0.00000
    204       3.6008     -0.00000
    205       4.2539      0.00000
    206       4.2539      0.00000
    207       4.2622      0.00000
    208       4.2622      0.00000
    209       5.0193      0.00000
    210       5.0195      0.00000
    211       5.4687      0.00000
    212       5.5327      0.00000
    213       5.7407      0.00000
    214       5.7442      0.00000
    215       6.2350      0.00000
    216       6.5708      0.00000

 k-point     3 :       0.3333    0.3333    0.0000
  band No.  band energies     occupation 
      1      -6.7438      2.00000
      2      -6.7438      2.00000
      3      -6.7438      2.00000
      4      -5.5081      2.00000
      5      -5.5081      2.00000
      6      -5.5081      2.00000
      7      -4.8827      2.00000
      8      -4.8827      2.00000
      9      -4.8827      2.00000
     10      -4.7369      2.00000
     11      -4.7369      2.00000
     12      -4.7369      2.00000
     13      -4.5542      2.00000
     14      -4.5542      2.00000
     15      -4.5542      2.00000
     16      -4.3899      2.00000
     17      -4.3899      2.00000
     18      -4.3899      2.00000
     19      -4.3747      2.00000
     20      -4.3747      2.00000
     21      -4.3747      2.00000
     22      -4.3586      2.00000
     23      -4.3586      2.00000
     24      -4.3586      2.00000
     25      -4.2505      2.00000
     26      -4.2505      2.00000
     27      -4.2505      2.00000
     28      -3.9881      2.00000
     29      -3.9881      2.00000
     30      -3.9881      2.00000
     31      -3.8924      2.00000
     32      -3.8924      2.00000
     33      -3.8924      2.00000
     34      -3.8745      2.00000
     35      -3.8745      2.00000
     36      -3.8745      2.00000
     37      -3.4443      2.00000
     38      -3.4443      2.00000
     39      -3.4443      2.00000
     40      -3.3467      2.00000
     41      -3.3467      2.00000
     42      -3.3467      2.00000
     43      -3.3436      2.00000
     44      -3.3436      2.00000
     45      -3.3436      2.00000
     46      -2.9703      2.00000
     47      -2.9703      2.00000
     48      -2.9703      2.00000
     49      -2.9103      2.00000
     50      -2.9103      2.00000
     51      -2.9103      2.00000
     52      -2.9030      2.00000
     53      -2.9030      2.00000
     54      -2.9030      2.00000
     55      -2.7551      2.00000
     56      -2.7551      2.00000
     57      -2.7551      2.00000
     58      -2.7245      2.00000
     59      -2.7245      2.00000
     60      -2.7245      2.00000
     61      -2.6372      2.00000
     62      -2.6372      2.00000
     63      -2.6372      2.00000
     64      -2.4162      2.00000
     65      -2.4162      2.00000
     66      -2.4161      2.00000
     67      -2.3554      2.00000
     68      -2.3554      2.00000
     69      -2.3554      2.00000
     70      -2.2103      2.00000
     71      -2.2103      2.00000
     72      -2.2103      2.00000
     73      -2.1570      2.00000
     74      -2.1570      2.00000
     75      -2.1570      2.00000
     76      -1.9846      2.00000
     77      -1.9846      2.00000
     78      -1.9846      2.00000
     79      -1.8884      2.00000
     80      -1.8884      2.00000
     81      -1.8884      2.00000
     82      -1.8436      2.00000
     83      -1.8436      2.00000
     84      -1.8436      2.00000
     85      -1.8168      2.00000
     86      -1.8168      2.00000
     87      -1.8168      2.00000
     88      -1.7721      2.00000
     89      -1.7721      2.00000
     90      -1.7721      2.00000
     91      -1.6437      2.00000
     92      -1.6437      2.00000
     93      -1.6437      2.00000
     94      -1.4442      2.00000
     95      -1.4442      2.00000
     96      -1.4442      2.00000
     97      -1.4438      2.00000
     98      -1.4438      2.00000
     99      -1.4438      2.00000
    100      -1.4348      2.00000
    101      -1.4348      2.00000
    102      -1.4348      2.00000
    103      -1.3341      2.00000
    104      -1.3341      2.00000
    105      -1.3341      2.00000
    106      -1.3190      2.00000
    107      -1.3190      2.00000
    108      -1.3190      2.00000
    109      -1.2080      2.00000
    110      -1.2080      2.00000
    111      -1.2080      2.00000
    112      -0.8188      2.00000
    113      -0.8188      2.00000
    114      -0.8188      2.00000
    115      -0.7815      2.00000
    116      -0.7815      2.00000
    117      -0.7815      2.00000
    118      -0.7398      2.00000
    119      -0.7398      2.00000
    120      -0.7398      2.00000
    121      -0.6950      2.00000
    122      -0.6950      2.00000
    123      -0.6950      2.00000
    124      -0.5122      2.00000
    125      -0.5122      2.00000
    126      -0.5122      2.00000
    127      -0.4675      2.00000
    128      -0.4675      2.00000
    129      -0.4675      2.00000
    130      -0.3422      2.00000
    131      -0.3422      2.00000
    132      -0.3422      2.00000
    133      -0.1891      2.00000
    134      -0.1891      2.00000
    135      -0.1891      2.00000
    136       0.0415      2.00000
    137       0.0415      2.00000
    138       0.0415      2.00000
    139       0.0950      2.00000
    140       0.0950      2.00000
    141       0.0950      2.00000
    142       0.1365      2.00000
    143       0.1365      2.00000
    144       0.1365      2.00000
    145       0.1888      2.00000
    146       0.1888      2.00000
    147       0.1888      2.00000
    148       0.2758      2.00000
    149       0.2758      2.00000
    150       0.2758      2.00000
    151       0.4607      2.00000
    152       0.4607      2.00000
    153       0.4607      2.00000
    154       0.5216      2.00000
    155       0.5216      2.00000
    156       0.5216      2.00000
    157       0.5297      2.00000
    158       0.5297      2.00000
    159       0.5297      2.00000
    160       0.9569      2.00000
    161       0.9569      2.00000
    162       0.9570      2.00000
    163       0.9828      2.00000
    164       0.9828      2.00000
    165       0.9828      2.00000
    166       1.1102      2.00475
    167       1.1103      2.00475
    168       1.1103      2.00475
    169       1.1845      2.04709
    170       1.1845      2.04709
    171       1.1845      2.04710
    172       1.2712      1.93473
    173       1.2712      1.93473
    174       1.2712      1.93472
    175       1.3552      0.80290
    176       1.3552      0.80289
    177       1.3552      0.80287
    178       1.3762      0.47676
    179       1.3762      0.47673
    180       1.3762      0.47673
    181       1.4620     -0.07043
    182       1.4620     -0.07043
    183       1.4621     -0.07043
    184       1.5449     -0.01524
    185       1.5449     -0.01523
    186       1.5449     -0.01523
    187       1.6043     -0.00141
    188       1.6043     -0.00141
    189       1.6043     -0.00141
    190       2.4316     -0.00000
    191       2.4316     -0.00000
    192       2.4316     -0.00000
    193       2.7130     -0.00000
    194       2.7130     -0.00000
    195       2.7130     -0.00000
    196       3.1414     -0.00000
    197       3.1414     -0.00000
    198       3.1414     -0.00000
    199       3.7173     -0.00000
    200       3.7173     -0.00000
    201       3.7175     -0.00000
    202       3.7686     -0.00000
    203       3.7686     -0.00000
    204       3.7687     -0.00000
    205       4.5182      0.00000
    206       4.5200      0.00000
    207       4.5390      0.00000
    208       4.9448      0.00000
    209       4.9570      0.00000
    210       5.0185      0.00000
    211       5.0352      0.00000
    212       5.0362      0.00000
    213       5.0463      0.00000
    214       5.0535      0.00000
    215       5.0583      0.00000
    216       5.3078      0.00000


--------------------------------------------------------------------------------------------------------


 soft charge-density along one line, spin component           1
         0         1         2         3         4         5         6         7         8         9
 total charge-density along one line
 
 pseudopotential strength for first ion, spin component:           1
 -9.887  -0.021   0.000  -0.000   0.000   0.066   0.002  -0.000
 -0.021  -9.876   0.000  -0.000   0.000   0.002   0.065  -0.000
  0.000   0.000  -9.911  -0.000   0.000  -0.000  -0.000   0.069
 -0.000  -0.000  -0.000  -9.876   0.021   0.000   0.000   0.000
  0.000   0.000   0.000   0.021  -9.887  -0.000  -0.000  -0.000
  0.066   0.002  -0.000   0.000  -0.000   0.190  -0.000   0.000
  0.002   0.065  -0.000   0.000  -0.000  -0.000   0.191   0.000
 -0.000  -0.000   0.069   0.000  -0.000   0.000   0.000   0.190
  0.000   0.000   0.000   0.065  -0.002  -0.000  -0.000  -0.000
 -0.000  -0.000  -0.000  -0.002   0.066   0.000   0.000   0.000
  0.000   0.000   0.003  -0.000   0.000  -0.000  -0.000  -0.000
 -0.000  -0.000  -0.000   0.000  -0.000   0.000   0.000   0.000
 -0.000   0.001  -0.000   0.000  -0.000  -0.000  -0.000   0.000
  0.000   0.000   0.002   0.000   0.000  -0.000  -0.000  -0.000
  0.000   0.000   0.000   0.001   0.000  -0.000  -0.000   0.000
 -0.000  -0.001   0.000  -0.000   0.000   0.000   0.000  -0.000
 -0.000  -0.000  -0.001  -0.000  -0.000   0.000   0.000   0.000
 -0.000  -0.000  -0.000  -0.001   0.000   0.000   0.000   0.000
 total augmentation occupancy for first ion, spin component:           1
  1.731  -0.088   0.000  -0.000   0.000   0.070   0.071   0.000   0.000  -0.000  -0.000   0.000   0.004  -0.000   0.000  -0.000
 -0.088   1.787  -0.000  -0.000  -0.000   0.071   0.008   0.000  -0.000   0.000  -0.000  -0.000   0.012  -0.000  -0.000  -0.000
[...]
    130      -0.3376      2.00000
    131      -0.3376      2.00000
    132      -0.3376      2.00000
    133      -0.1815      2.00000
    134      -0.1815      2.00000
    135      -0.1815      2.00000
    136       0.0336      2.00000
    137       0.0336      2.00000
    138       0.0336      2.00000
    139       0.1017      2.00000
    140       0.1017      2.00000
    141       0.1017      2.00000
    142       0.1313      2.00000
    143       0.1313      2.00000
    144       0.1313      2.00000
    145       0.1781      2.00000
    146       0.1781      2.00000
    147       0.1781      2.00000
    148       0.2897      2.00000
    149       0.2897      2.00000
    150       0.2897      2.00000
    151       0.4663      2.00000
    152       0.4663      2.00000
    153       0.4663      2.00000
    154       0.5239      2.00000
    155       0.5239      2.00000
    156       0.5239      2.00000
    157       0.5465      2.00000
    158       0.5465      2.00000
    159       0.5465      2.00000
    160       0.9626      2.00000
    161       0.9626      2.00000
    162       0.9626      2.00000
    163       0.9868      2.00000
    164       0.9868      2.00000
    165       0.9868      2.00000
    166       1.1024      2.00280
    167       1.1024      2.00280
    168       1.1024      2.00280
    169       1.1868      2.04499
    170       1.1868      2.04499
    171       1.1868      2.04499
    172       1.2724      1.95627
    173       1.2724      1.95626
    174       1.2724      1.95626
    175       1.3631      0.74940
    176       1.3631      0.74939
    177       1.3631      0.74938
    178       1.3847      0.42443
    179       1.3847      0.42440
    180       1.3847      0.42440
    181       1.4661     -0.07027
    182       1.4661     -0.07027
    183       1.4661     -0.07027
    184       1.5459     -0.01717
    185       1.5459     -0.01717
    186       1.5459     -0.01717
    187       1.6073     -0.00152
    188       1.6073     -0.00152
    189       1.6073     -0.00152
    190       2.4341     -0.00000
    191       2.4341     -0.00000
    192       2.4341     -0.00000
    193       2.7267     -0.00000
    194       2.7267     -0.00000
    195       2.7267     -0.00000
    196       3.1405     -0.00000
    197       3.1405     -0.00000
    198       3.1405     -0.00000
    199       3.7217     -0.00000
    200       3.7217     -0.00000
    201       3.7217     -0.00000
    202       3.7657     -0.00000
    203       3.7657     -0.00000
    204       3.7657     -0.00000
    205       4.5268      0.00000
    206       4.5268      0.00000
    207       4.5268      0.00000
    208       4.9462      0.00000
    209       4.9462      0.00000
    210       4.9462      0.00000
    211       5.0375      0.00000
    212       5.0375      0.00000
    213       5.0375      0.00000
    214       5.0584      0.00000
    215       5.0584      0.00000
    216       5.0584      0.00000


--------------------------------------------------------------------------------------------------------


 soft charge-density along one line, spin component           1
         0         1         2         3         4         5         6         7         8         9
 total charge-density along one line
 
 pseudopotential strength for first ion, spin component:           1
 -9.887  -0.022   0.000  -0.000   0.000   0.066   0.002  -0.000
 -0.022  -9.880  -0.000  -0.000   0.000   0.002   0.065   0.000
  0.000  -0.000  -9.915  -0.000   0.000  -0.000   0.000   0.069
 -0.000  -0.000  -0.000  -9.880   0.022   0.000   0.000   0.000
  0.000   0.000   0.000   0.022  -9.887  -0.000  -0.000  -0.000
  0.066   0.002  -0.000   0.000  -0.000   0.190  -0.000   0.000
  0.002   0.065   0.000   0.000  -0.000  -0.000   0.191  -0.000
 -0.000   0.000   0.069   0.000  -0.000   0.000  -0.000   0.190
  0.000   0.000   0.000   0.065  -0.002  -0.000  -0.000   0.000
 -0.000  -0.000  -0.000  -0.002   0.066   0.000   0.000   0.000
  0.000   0.000   0.004  -0.000   0.000  -0.000  -0.000  -0.000
 -0.000  -0.000  -0.000   0.000  -0.000   0.000   0.000   0.000
  0.000   0.001  -0.000   0.000  -0.000  -0.000  -0.000   0.000
  0.000   0.000   0.002   0.000   0.000  -0.000  -0.000  -0.000
  0.000   0.000   0.000   0.001  -0.000  -0.000  -0.000  -0.000
 -0.000  -0.001   0.000  -0.000   0.000   0.000   0.000  -0.000
 -0.000  -0.000  -0.001  -0.000  -0.000   0.000   0.000   0.000
 -0.000  -0.000  -0.000  -0.001   0.000   0.000   0.000   0.000
 total augmentation occupancy for first ion, spin component:           1
  1.734  -0.090   0.000  -0.000   0.000   0.070   0.073   0.000   0.000  -0.000  -0.000   0.000   0.004  -0.000   0.000  -0.000
 -0.090   1.785  -0.000  -0.000  -0.000   0.072   0.013   0.000  -0.000   0.000  -0.000  -0.000   0.012  -0.000  -0.000  -0.000
  0.000  -0.000   1.654  -0.000  -0.000   0.000   0.000   0.133   0.000  -0.000  -0.017   0.002   0.000  -0.003   0.000  -0.000
 -0.000  -0.000  -0.000   1.785   0.090   0.000  -0.000   0.000   0.013  -0.072   0.000   0.000  -0.000   0.000   0.012   0.000
  0.000  -0.000  -0.000   0.090   1.734  -0.000   0.000  -0.000  -0.073   0.070   0.000  -0.000   0.000   0.000  -0.004  -0.000
  0.070   0.072   0.000   0.000  -0.000   0.307   0.009   0.000   0.000   0.000   0.000   0.000  -0.001   0.000  -0.000  -0.000
  0.073   0.013   0.000  -0.000   0.000   0.009   0.310   0.000  -0.000   0.000   0.000   0.000  -0.002   0.000   0.000  -0.000
  0.000   0.000   0.133   0.000  -0.000   0.000   0.000   0.301   0.000  -0.000   0.015   0.004  -0.000   0.008  -0.000  -0.000
  0.000  -0.000   0.000   0.013  -0.073   0.000  -0.000   0.000   0.310  -0.009   0.000  -0.000   0.000  -0.000  -0.002   0.000
 -0.000   0.000  -0.000  -0.072   0.070   0.000   0.000  -0.000  -0.009   0.307  -0.000  -0.000  -0.000  -0.000   0.001  -0.000
 -0.000  -0.000  -0.017   0.000   0.000   0.000   0.000   0.015  -0.000  -0.000   1.078  -0.410  -0.000   0.007   0.000   0.000
  0.000  -0.000   0.002   0.000  -0.000   0.000   0.000   0.004  -0.000  -0.000  -0.410   0.196   0.000  -0.003  -0.000   0.000
  0.004   0.012   0.000  -0.000   0.000  -0.001  -0.002  -0.000   0.000  -0.000  -0.000   0.000   0.195  -0.000  -0.000  -0.009
 -0.000  -0.000  -0.003   0.000   0.000   0.000   0.000   0.008  -0.000  -0.000   0.007  -0.003  -0.000   0.199   0.000   0.000
  0.000  -0.000   0.000   0.012  -0.004  -0.000   0.000  -0.000  -0.002   0.001   0.000   0.000  -0.000   0.000   0.195   0.000
 -0.000  -0.000  -0.000   0.000  -0.000  -0.000  -0.000  -0.000   0.000  -0.000  -0.000   0.000  -0.009  -0.000   0.000   0.000
  0.000   0.000   0.001  -0.000  -0.000  -0.000  -0.000  -0.000   0.000   0.000  -0.000   0.000   0.000  -0.009  -0.000   0.000
 -0.000   0.000  -0.000  -0.000   0.000  -0.000   0.000  -0.000  -0.000   0.000   0.000  -0.000   0.000  -0.000  -0.009  -0.000


------------------------ aborting loop because EDIFF is reached ----------------------------------------


    CHARGE:  cpu time    0.3829: real time    0.3828
    FORLOC:  cpu time    0.0240: real time    0.0247
    FORNL :  cpu time    1.5428: real time    1.5428
    STRESS:  cpu time    4.6343: real time    4.6353
    FORCOR:  cpu time    0.1430: real time    0.1430
    FORHAR:  cpu time    0.0480: real time    0.0474
    MIXING:  cpu time    0.0040: real time    0.0043
    OFIELD:  cpu time    0.0000: real time    0.0000

  FORCE on cell =-STRESS in cart. coord.  units (eV):
  Direction    XX          YY          ZZ          XY          YZ          ZX
  --------------------------------------------------------------------------------------
  Alpha Z  1819.17415  1819.17415  1819.17415
  Ewald   50078.38441 50078.38442-69906.37558     0.00000     0.00000     0.00000
  Hartree 57328.98393 57328.98395-55711.42383    -0.00002    -0.00001     0.00001
  E(xc)   -1591.14147 -1591.14148 -1601.15236     0.00001     0.00000    -0.00000
  Local  ************************119901.81078     0.00001     0.00006    -0.00004
  n-local -1259.74391 -1171.88761 -1243.30319    -0.02375     0.00102    -1.26522
  augment  1400.74092  1400.73956  1438.06587     0.00112    -0.00222     0.00124
  Kinetic  5117.88877  5226.29511  5303.23268    -0.00016    -0.00009   -22.85750
  Fock        0.00000     0.00000     0.00000     0.00000     0.00000     0.00000
  -------------------------------------------------------------------------------------
  Total     -33.33839   -33.33839     0.02851     0.00000     0.00000     0.00000
  in kB     -51.53183   -51.53183     0.04407     0.00000     0.00000     0.00000
  external pressure =      -34.34 kB  Pullay stress =        0.00 kB


 VOLUME and BASIS-vectors are now :
 -----------------------------------------------------------------------------
  energy-cutoff  :      450.00
  volume of cell :     1036.52
      direct lattice vectors                 reciprocal lattice vectors
     7.293214350 -4.210739270  0.000000000     0.137113754  0.000000000  0.000000000
     0.000000000  8.421478530  0.000000000     0.068556877  0.118743994  0.000000000
     0.000000000  0.000000000 16.876108430     0.000000000  0.000000000  0.059255367

  length of vectors
     8.421478537  8.421478530 16.876108430     0.137113754  0.137113754  0.059255367


 FORCES acting on ions
    electron-ion (+dipol)            ewald-force                    non-local-force                 convergence-correction
 -----------------------------------------------------------------------------------------------
   0.629E-06 0.968E-07 0.607E+03   0.897E-09 -.937E-09 -.607E+03   -.195E-17 -.694E-17 0.906E-01   0.596E-08 -.115E-07 -.294E-01
   0.780E-05 -.140E-04 -.614E+03   0.410E-08 0.127E-08 0.614E+03   0.325E-17 0.694E-17 -.590E-01   -.104E-06 0.185E-06 0.666E-01
   -.342E-06 0.608E-06 0.181E+04   -.231E-07 -.236E-07 -.181E+04   -.108E-18 -.108E-17 0.614E-01   0.441E-09 -.796E-09 0.396E-03
   -.106E-04 0.179E-04 -.180E+04   0.241E-07 0.187E-07 0.180E+04   0.596E-18 -.759E-18 -.779E-01   0.348E-07 -.595E-07 -.472E-01
   0.629E-06 0.971E-07 0.607E+03   -.314E-08 -.687E-09 -.607E+03   0.325E-17 0.954E-17 0.906E-01   0.596E-08 -.115E-07 -.294E-01
   0.780E-05 -.140E-04 -.614E+03   0.759E-10 0.152E-08 0.614E+03   -.217E-18 0.867E-17 -.590E-01   -.104E-06 0.185E-06 0.666E-01
   -.342E-06 0.609E-06 0.181E+04   -.272E-07 -.234E-07 -.181E+04   0.249E-17 -.141E-17 0.614E-01   0.447E-09 -.796E-09 0.396E-03
   -.106E-04 0.179E-04 -.180E+04   0.200E-07 0.189E-07 0.180E+04   -.157E-17 0.434E-18 -.779E-01   0.348E-07 -.595E-07 -.472E-01
   0.629E-06 0.969E-07 0.607E+03   -.236E-09 -.780E-09 -.607E+03   0.694E-17 -.260E-17 0.906E-01   0.596E-08 -.115E-07 -.294E-01
   0.780E-05 -.140E-04 -.614E+03   0.120E-08 0.136E-08 0.614E+03   0.000E+00 -.434E-17 -.590E-01   -.104E-06 0.185E-06 0.666E-01
   -.342E-06 0.608E-06 0.181E+04   -.253E-07 -.235E-07 -.181E+04   0.434E-18 -.217E-18 0.614E-01   0.443E-09 -.796E-09 0.396E-03
   -.106E-04 0.179E-04 -.180E+04   0.222E-07 0.188E-07 0.180E+04   0.108E-18 0.108E-17 -.779E-01   0.348E-07 -.595E-07 -.472E-01
   0.629E-06 0.965E-07 0.607E+03   0.206E-08 0.119E-08 -.607E+03   -.867E-18 0.260E-17 0.906E-01   0.596E-08 -.115E-07 -.294E-01
   0.780E-05 -.140E-04 -.614E+03   0.547E-08 0.382E-08 0.614E+03   0.542E-17 0.867E-18 -.590E-01   -.104E-06 0.185E-06 0.666E-01
   -.342E-06 0.608E-06 0.181E+04   -.220E-07 -.215E-07 -.181E+04   0.922E-18 0.000E+00 0.614E-01   0.440E-09 -.798E-09 0.396E-03
   -.106E-04 0.179E-04 -.180E+04   0.251E-07 0.208E-07 0.180E+04   0.000E+00 0.542E-18 -.779E-01   0.348E-07 -.595E-07 -.472E-01
   0.629E-06 0.969E-07 0.607E+03   -.198E-08 0.144E-08 -.607E+03   0.434E-18 -.347E-17 0.906E-01   0.596E-08 -.115E-07 -.294E-01
   0.780E-05 -.140E-04 -.614E+03   0.144E-08 0.408E-08 0.614E+03   -.651E-18 0.347E-17 -.590E-01   -.104E-06 0.185E-06 0.666E-01
   -.342E-06 0.609E-06 0.181E+04   -.261E-07 -.214E-07 -.181E+04   0.108E-18 0.000E+00 0.614E-01   0.446E-09 -.798E-09 0.396E-03
   -.106E-04 0.179E-04 -.180E+04   0.211E-07 0.209E-07 0.180E+04   0.325E-18 0.130E-17 -.779E-01   0.348E-07 -.595E-07 -.472E-01
   0.629E-06 0.967E-07 0.607E+03   0.930E-09 0.135E-08 -.607E+03   -.173E-17 -.434E-17 0.906E-01   0.596E-08 -.115E-07 -.294E-01
   0.780E-05 -.140E-04 -.614E+03   0.257E-08 0.392E-08 0.614E+03   -.217E-17 0.781E-17 -.590E-01   -.104E-06 0.185E-06 0.666E-01
   -.342E-06 0.608E-06 0.181E+04   -.243E-07 -.214E-07 -.181E+04   0.542E-19 0.217E-18 0.614E-01   0.442E-09 -.797E-09 0.396E-03
   -.106E-04 0.179E-04 -.180E+04   0.233E-07 0.208E-07 0.180E+04   0.217E-18 0.130E-17 -.779E-01   0.348E-07 -.595E-07 -.472E-01
   0.629E-06 0.970E-07 0.607E+03   -.213E-09 -.297E-08 -.607E+03   -.651E-17 -.260E-17 0.906E-01   0.596E-08 -.115E-07 -.294E-01
   0.780E-05 -.140E-04 -.614E+03   0.369E-08 0.259E-09 0.614E+03   0.434E-17 0.260E-17 -.590E-01   -.104E-06 0.185E-06 0.666E-01
   -.343E-06 0.608E-06 0.181E+04   -.213E-07 -.200E-07 -.181E+04   0.206E-17 0.195E-17 0.614E-01   0.440E-09 -.797E-09 0.396E-03
   -.106E-04 0.179E-04 -.180E+04   0.255E-07 0.218E-07 0.180E+04   -.152E-17 0.282E-17 -.779E-01   0.348E-07 -.595E-07 -.472E-01
   0.630E-06 0.973E-07 0.607E+03   -.425E-08 -.272E-08 -.607E+03   -.564E-17 -.867E-18 0.906E-01   0.597E-08 -.115E-07 -.294E-01
   0.780E-05 -.140E-04 -.614E+03   -.333E-09 0.503E-09 0.614E+03   -.412E-17 -.173E-17 -.590E-01   -.104E-06 0.185E-06 0.666E-01
   -.342E-06 0.609E-06 0.181E+04   -.253E-07 -.199E-07 -.181E+04   0.867E-18 0.173E-17 0.614E-01   0.446E-09 -.798E-09 0.396E-03
   -.106E-04 0.179E-04 -.180E+04   0.215E-07 0.219E-07 0.180E+04   -.179E-17 0.184E-17 -.779E-01   0.348E-07 -.595E-07 -.472E-01
   0.629E-06 0.971E-07 0.607E+03   -.135E-08 -.281E-08 -.607E+03   0.434E-18 0.520E-17 0.906E-01   0.596E-08 -.115E-07 -.294E-01
   0.780E-05 -.140E-04 -.614E+03   0.787E-09 0.345E-09 0.614E+03   0.369E-17 0.173E-17 -.590E-01   -.104E-06 0.185E-06 0.666E-01
   -.342E-06 0.608E-06 0.181E+04   -.235E-07 -.200E-07 -.181E+04   0.108E-18 -.130E-17 0.614E-01   0.442E-09 -.798E-09 0.396E-03
   -.106E-04 0.179E-04 -.180E+04   0.237E-07 0.218E-07 0.180E+04   0.271E-18 0.217E-18 -.779E-01   0.348E-07 -.595E-07 -.472E-01
 -----------------------------------------------------------------------------------------------
   -.228E-04 0.417E-04 -.866E-01   -.111E-12 -.759E-13 0.682E-12   0.748E-17 0.312E-16 0.136E+00   -.565E-06 0.102E-05 -.869E-01
 
 
 POSITION                                       TOTAL-FORCE (eV/Angst)
 -----------------------------------------------------------------------------------
      1.78441      0.85618      2.29204         0.000000     -0.000000      0.136895
      0.16369      0.85618      4.56647         0.000000      0.000000      0.008464
      0.97405     -0.54740      0.00000         0.000000     -0.000000     -0.099126
      0.97405     -0.54740      6.88358        -0.000000     -0.000000     -0.046234
      4.21548     -0.54740      2.29204         0.000000     -0.000000      0.136895
      2.59476     -0.54740      4.56647        -0.000000      0.000000      0.008464
      3.40512     -1.95098      0.00000         0.000000     -0.000000     -0.099126
      3.40512     -1.95098      6.88358        -0.000000     -0.000000     -0.046234
      6.64655     -1.95098      2.29204         0.000000     -0.000000      0.136895
      5.02584     -1.95098      4.56647        -0.000000     -0.000000      0.008464
      5.83619     -3.35456      0.00000         0.000000     -0.000000     -0.099126
      5.83619     -3.35456      6.88358        -0.000000     -0.000000     -0.046234
      1.78441      3.66334      2.29204         0.000000     -0.000000      0.136895
      0.16369      3.66334      4.56647         0.000000     -0.000000      0.008464
      0.97405      2.25976      0.00000         0.000000     -0.000000     -0.099126
      0.97405      2.25976      6.88358        -0.000000     -0.000000     -0.046234
      4.21548      2.25976      2.29204         0.000000     -0.000000      0.136895
      2.59476      2.25976      4.56647        -0.000000      0.000000      0.008464
      3.40512      0.85618      0.00000         0.000000     -0.000000     -0.099126
      3.40512      0.85618      6.88358        -0.000000      0.000000     -0.046234
      6.64655      0.85618      2.29204         0.000000     -0.000000      0.136895
      5.02584      0.85618      4.56647        -0.000000      0.000000      0.008464
      5.83619     -0.54740      0.00000         0.000000     -0.000000     -0.099126
      5.83619     -0.54740      6.88358        -0.000000     -0.000000     -0.046234
      1.78441      6.47050      2.29204         0.000000     -0.000000      0.136895
      0.16369      6.47050      4.56647         0.000000     -0.000000      0.008464
      0.97405      5.06692      0.00000         0.000000     -0.000000     -0.099126
      0.97405      5.06692      6.88358        -0.000000      0.000000     -0.046234
      4.21548      5.06692      2.29204         0.000000     -0.000000      0.136895
      2.59476      5.06692      4.56647        -0.000000      0.000000      0.008464
      3.40512      3.66334      0.00000         0.000000     -0.000000     -0.099126
      3.40512      3.66334      6.88358        -0.000000      0.000000     -0.046234
      6.64655      3.66334      2.29204         0.000000     -0.000000      0.136895
      5.02584      3.66334      4.56647         0.000000      0.000000      0.008464
      5.83619      2.25976      0.00000         0.000000     -0.000000     -0.099126
      5.83619      2.25976      6.88358        -0.000000      0.000000     -0.046234
 -----------------------------------------------------------------------------------
    total drift:                               -0.000023      0.000043     -0.037807
  FORCES: max atom, RMS     0.046234    0.023501
  Number: max atom                 4
  FORCE total and by dimension    0.141006    0.046234


--------------------------------------------------------------------------------------------------------



  FREE ENERGIE OF THE ION-ELECTRON SYSTEM (eV)
  ---------------------------------------------------
  free  energy   TOTEN  =      -207.33727529 eV

  energy  without entropy=     -207.31737627  energy(sigma->0) =     -207.33064228
 
 d Force = 0.3269526E-02[-0.217E-02, 0.871E-02]  d Energy = 0.3020839E-02 0.249E-03
 d Force = 0.1181336E+02[ 0.116E+02, 0.120E+02]  d Ewald  = 0.1181341E+02-0.545E-04


--------------------------------------------------------------------------------------------------------


    POTLOK:  cpu time    0.1380: real time    0.1492


--------------------------------------------------------------------------------------------------------




--------------------------------------------------------------------------------------------------------


  
 reached required accuracy - stopping structural energy minimisation
     LOOP+:  cpu time   49.5405: real time   49.6772
    4ORBIT:  cpu time    0.0000: real time    0.0000

 total amount of memory used by VASP on root node    69470. kBytes
========================================================================

   base      :      30000. kBytes
   nonlr-proj:       5568. kBytes
   fftplans  :       5737. kBytes
   grid      :       8073. kBytes
   one-center:         93. kBytes
   wavefun   :      19999. kBytes
 
  
  
 General timing and accounting informations for this job:
 ========================================================
  
                  Total CPU time used (sec):      277.373
                            User time (sec):      277.165
                          System time (sec):        0.208
                         Elapsed time (sec):      313.202
  
                   Maximum memory used (kb):           0.
                   Average memory used (kb):           0.
  
                          Minor page faults:        23142
                          Major page faults:            0
                 Voluntary context switches:         4844
